

     ************************************************************************
     *************** Dalton - An Electronic Structure Program ***************
     ************************************************************************

    This is output from DALTON release Dalton2022.0-dev (2022)
         ( Web site: http://daltonprogram.org )

   ----------------------------------------------------------------------------

    NOTE:
     
    Dalton is an experimental code for the evaluation of molecular
    properties using (MC)SCF, DFT, CI, and CC wave functions.
    The authors accept no responsibility for the performance of
    the code or for the correctness of the results.
     
    The code (in whole or part) is provided under a licence and
    is not to be reproduced for further distribution without
    the written permission of the authors or their representatives.
     
    See the home page "http://daltonprogram.org" for further information.
     
    If results obtained with this code are published,
    the appropriate citations would be both of:
     
       K. Aidas, C. Angeli, K. L. Bak, V. Bakken,
       R. Bast, L. Boman, O. Christiansen, R. Cimiraglia,
       S. Coriani, P. Dahle, E. K. Dalskov, U. Ekstroem,
       T. Enevoldsen, J. J. Eriksen, P. Ettenhuber, B. Fernandez,
       L. Ferrighi, H. Fliegl, L. Frediani, K. Hald, A. Halkier,
       C. Haettig, H. Heiberg, T. Helgaker, A. C. Hennum,
       H. Hettema, E. Hjertenaes, S. Hoest, I.-M. Hoeyvik,
       M. F. Iozzi, B. Jansik, H. J. Aa. Jensen, D. Jonsson,
       P. Joergensen, J. Kauczor, S. Kirpekar,
       T. Kjaergaard, W. Klopper, S. Knecht, R. Kobayashi, H. Koch,
       J. Kongsted, A. Krapp, K. Kristensen, A. Ligabue,
       O. B. Lutnaes, J. I. Melo, K. V. Mikkelsen, R. H. Myhre,
       C. Neiss, C. B. Nielsen, P. Norman, J. Olsen,
       J. M. H. Olsen, A. Osted, M. J. Packer, F. Pawlowski,
       T. B. Pedersen, P. F. Provasi, S. Reine, Z. Rinkevicius,
       T. A. Ruden, K. Ruud, V. Rybkin, P. Salek, C. C. M. Samson,
       A. Sanchez de Meras, T. Saue, S. P. A. Sauer,
       B. Schimmelpfennig, K. Sneskov, A. H. Steindal,
       K. O. Sylvester-Hvid, P. R. Taylor, A. M. Teale,
       E. I. Tellgren, D. P. Tew, A. J. Thorvaldsen, L. Thoegersen,
       O. Vahtras, M. A. Watson, D. J. D. Wilson, M. Ziolkowski
       and H. Agren,
       "The Dalton quantum chemistry program system",
       WIREs Comput. Mol. Sci. 2014, 4:269-284 (doi: 10.1002/wcms.1172)
     
    and
     
       Dalton, a molecular electronic structure program,
       Release Dalton2022.0-dev (2022), see http://daltonprogram.org
   ----------------------------------------------------------------------------

    Authors in alphabetical order (Major contribution(s) in parenthesis):

  Kestutis Aidas,              Vilnius University,        Lithuania   (QM/MM)
  Celestino Angeli,            University of Ferrara,     Italy       (NEVPT2)
  Juan J. Aucar,               Northeast National UniversiArgentina   (LRESC, Relativistic Effects on EFG)
  Keld L. Bak,                 UNI-C,                     Denmark     (AOSOPPA, non-adiabatic coupling, magnetic properties)
  Vebjoern Bakken,             University of Oslo,        Norway      (DALTON; geometry optimizer, symmetry detection)
  Radovan Bast,                UiT The Arctic U. of NorwayNorway      (DALTON installation and execution frameworks)
  Pablo Baudin,                University of Valencia,    Spain       (Cholesky excitation energies)
  Linus Boman,                 NTNU,                      Norway      (Cholesky decomposition and subsystems)
  Bruno N. Cabral Tenorio,     Technical Univ. of Denmark,Denmark     (Lanczos-based CC methods)
  Ove Christiansen,            Aarhus University,         Denmark     (CC module)
  Renzo Cimiraglia,            University of Ferrara,     Italy       (NEVPT2)
  Sonia Coriani,               Technical Univ. of Denmark,Denmark     (CC and RESPONS modules)
  Janusz Cukras,               University of Warsaw,      Poland      (MChD in RESPONS)
  Paal Dahle,                  University of Oslo,        Norway      (Parallelization)
  Erik K. Dalskov,             UNI-C,                     Denmark     (SOPPA)
  Thomas Enevoldsen,           Univ. of Southern Denmark, Denmark     (SOPPA)
  Janus J. Eriksen,            Aarhus University,         Denmark     (Polarizable embedding, TDA)
  Rasmus Faber,                Technical Univ. of Denmark,Denmark     (Vib.avg. NMR w. SOPPA, parallel AO-SOPPA, CVS-CC and EOMCC)
  Tobias Fahleson,             KTH Stockholm,             Sweden      (Damped cubic response)
  Berta Fernandez,             U. of Santiago de CompostelSpain       (Doublet spin, ESR in RESPONS)
  Lara Ferrighi,               Aarhus University,         Denmark     (PCM Cubic response)
  Heike Fliegl,                University of Oslo,        Norway      (CCSD(R12))
  Luca Frediani,               UiT The Arctic U. of NorwayNorway      (PCM)
  Emmanuel Fromager,           Univ. Strasbourg,          France      (MC-srDFT)
  Bin Gao,                     UiT The Arctic U. of NorwayNorway      (Gen1Int library)
  Andre S. P. Gomes,           CNRS/Universite de Lille,  France      (Frozen density embedding)
  Christof Haettig,            Ruhr-University Bochum,    Germany     (CC module)
  Kasper Hald,                 Aarhus University,         Denmark     (CC module)
  Asger Halkier,               Aarhus University,         Denmark     (CC module)
  Frederik Beyer Hansen,       University of Copenhagen,  Denmark     (Parallel AO-SOPPA)
  Erik D. Hedegaard,           Univ. of Southern Denmark, Denmark     (Polarizable embedding, QM/MM, and MC-srDFT)
  Hanne Heiberg,               University of Oslo,        Norway      (Geometry analysis, selected one-electron integrals)
  Trygve Helgaker,             University of Oslo,        Norway      (DALTON; ABACUS, ERI, DFT modules, London, and much more)
  Alf Christian Hennum,        University of Oslo,        Norway      (Parity violation)
  Hinne Hettema,               University of Auckland,    New Zealand (Quadratic response in RESPONS; SIRIUS supersymmetry)
  Andreas E. Hillers-Bendtsen, University of Copenhagen,  Denmark     (MP3)
  Eirik Hjertenaes,            NTNU,                      Norway      (Cholesky decomposition)
  Nicolai Machholdt Hoeyer,    Aarhus University,         Denmark     (MP3)
  Pi A. B. Haase,              University of Copenhagen,  Denmark     (Triplet AO-SOPPA)
  Maria Francesca Iozzi,       University of Oslo,        Norway      (RPA)
  Christoph Jacob,             TU Braunschweig            Germany     (Frozen density embedding)
  Brano Jansik,                Technical Univ. of Ostrava Czech Rep.  (DFT cubic response)
  Hans Joergen Aa. Jensen,     Univ. of Southern Denmark, Denmark     (DALTON; SIRIUS, RESPONS, ABACUS, MC-srDFT, and much more)
  Dan Jonsson,                 UiT The Arctic U. of NorwayNorway      (Cubic response in RESPONS module)
  Poul Joergensen,             Aarhus University,         Denmark     (RESPONS, ABACUS, and CC modules)
  Maciej Kaminski,             University of Warsaw,      Poland      (CPPh in RESPONS)
  Joanna Kauczor,              Linkoeping University,     Sweden      (Complex polarization propagator (CPP) module)
  Sheela Kirpekar,             Univ. of Southern Denmark, Denmark     (Mass-velocity & Darwin integrals)
  Frederik Oersted Kjeldal,    Technical Univ. of Denmark,Denmark     (MP3)
  Erik Kjellgren,              Univ. of Southern Denmark, Denmark     (MC-srDFT)
  Wim Klopper,                 KIT Karlsruhe,             Germany     (R12 code in CC, SIRIUS, and ABACUS modules)
  Stefan Knecht,               ETH Zurich,                Switzerland (Parallel CI and MCSCF, MC-srDFT)
  Rika Kobayashi,              Australian National Univ., Australia   (DIIS in CC, London in MCSCF)
  Henrik Koch,                 NTNU,                      Norway      (CC module, Cholesky decomposition)
  Jacob Kongsted,              Univ. of Southern Denmark, Denmark     (Polarizable embedding, polarizable density embedding, QM/MM)
  Andrea Ligabue,              University of Modena,      Italy       (CTOCD, AOSOPPA)
  Nanna H. List,               Univ. of Southern Denmark, Denmark     (Polarizable embedding)
  Ola B. Lutnaes,              University of Oslo,        Norway      (DFT Hessian)
  Juan I. Melo,                University of Buenos Aires,Argentina   (LRESC, Relativistic Effects on NMR Shieldings)
  Kurt V. Mikkelsen,           University of Copenhagen,  Denmark     (MC-SCRF, QM/MM, and MP3)
  Rolf H. Myhre,               NTNU,                      Norway      (Subsystems and CC3)
  Christian Neiss,             Univ. Erlangen-Nuernberg,  Germany     (CCSD(R12))
  Christian B. Nielsen,        University of Copenhagen,  Denmark     (QM/MM)
  Patrick Norman,              KTH Stockholm,             Sweden      (Cubic response and complex frequency response in RESPONS)
  Jeppe Olsen,                 Aarhus University,         Denmark     (SIRIUS CI/density modules)
  Jogvan Magnus H. Olsen,      Aarhus University,         Denmark     (Polarizable embedding and polarizable density embedding)
  Anders Osted,                Copenhagen University,     Denmark     (QM/MM)
  Martin J. Packer,            University of Sheffield,   UK          (SOPPA)
  Filip Pawlowski,             Kazimierz Wielki UniversityPoland      (CC3)
  Morten N. Pedersen,          Univ. of Southern Denmark, Denmark     (Polarizable embedding)
  Thomas B. Pedersen,          University of Oslo,        Norway      (Cholesky decomposition)
  Patricio F. Provasi,         University of Northeastern,Argentina   (Analysis of coupling constants in localized orbitals)
  Peter Reinholdt,             Univ. of Southern Denmark, Denmark     (Polarizable embedding and polarizable density embedding)
  Zilvinas Rinkevicius,        KTH Stockholm,             Sweden      (open-shell DFT, ESR)
  Elias Rudberg,               KTH Stockholm,             Sweden      (DFT grid and basis info)
  Torgeir A. Ruden,            University of Oslo,        Norway      (Numerical derivatives in ABACUS)
  Kenneth Ruud,                UiT The Arctic U. of NorwayNorway      (DALTON; ABACUS magnetic properties and much more)
  Pawel Salek,                 KTH Stockholm,             Sweden      (DALTON; DFT code)
  Claire C. M. Samson,         University of Karlsruhe    Germany     (Boys localization, r12 integrals in ERI)
  Alfredo Sanchez de Meras,    University of Valencia,    Spain       (CC module, Cholesky decomposition)
  Trond Saue,                  Paul Sabatier University,  France      (direct Fock matrix construction)
  Stephan P. A. Sauer,         University of Copenhagen,  Denmark     (SOPPA(CCSD), SOPPA prop., AOSOPPA, vibrational g-factors)
  Bernd Schimmelpfennig,       Forschungszentrum KarlsruheGermany     (AMFI module)
  Anna K. Schnack-Petersen,    University of Copenhagen,  Denmark     (RPA(D) and HRPA(D) properties in AOSOPPA)
  Kristian Sneskov,            Aarhus University,         Denmark     (Polarizable embedding, QM/MM)
  Arnfinn H. Steindal,         UiT The Arctic U. of NorwayNorway      (parallel QM/MM, polarizable embedding)
  Casper Steinmann,            Aalborg University,        Denmark     (QFIT, polarizable embedding)
  K. O. Sylvester-Hvid,        University of Copenhagen,  Denmark     (MC-SCRF)
  Peter R. Taylor,             VLSCI/Univ. of Melbourne,  Australia   (Symmetry handling ABACUS, integral transformation)
  Andrew M. Teale,             University of Nottingham,  England     (DFT-AC, DFT-D)
  David P. Tew,                University of Bristol,     England     (CCSD(R12))
  Julien Toulouse,             Sorbonne Univ.,            France      (MC-srDFT)
  Olav Vahtras,                KTH Stockholm,             Sweden      (Triplet response, spin-orbit, ESR, TDDFT, open-shell DFT)
  Lucas Visscher,              Vrije Universiteit AmsterdaNetherlands (Frozen density embedding)
  David J. Wilson,             La Trobe University,       Australia   (DFT Hessian and DFT magnetizabilities)
  Luna Zamok,                  University of Copenhagen,  Denmark     (Block Lanczos RPA solver in SOPPA module)
  Hans Agren,                  KTH Stockholm,             Sweden      (SIRIUS module, RESPONS, MC-SCRF solvation)
 --------------------------------------------------------------------------------

     Date and time (Linux)  : Thu Nov 24 15:13:30 2022
     Host name              : loke                                    

 * Work memory size             :    64000000 =  488.28 megabytes.

 * Directories for basis set searches:
   1) /home/reinholdt/Programs/dalton/DALTON/test/pdehf_shield
   2) /home/reinholdt/Programs/dalton/build-pde-london/basis


Compilation information
-----------------------

 Who compiled             | reinholdt
 Host                     | loke
 System                   | Linux-6.0.2-arch1-1
 CMake generator          | Unix Makefiles
 Processor                | x86_64
 64-bit integers          | OFF
 MPI                      | ON
 Fortran compiler         | /opt/intel/oneapi/mpi/2021.7.0/bin/mpiifort
 Fortran compiler version | unknown
 C compiler               | /opt/intel/oneapi/mpi/2021.7.0/bin/mpiicc
 C compiler version       | unknown
 C++ compiler             | /opt/intel/oneapi/mpi/2021.7.0/bin/mpicxx
 C++ compiler version     | unknown
 BLAS                     | /opt/intel/oneapi/mkl/2022.2.0/lib/intel64/libmkl_
                          | intel_lp64.so;/opt/intel/oneapi/mkl/2022.2.0/lib/i
                          | ntel64/libmkl_sequential.so;/opt/intel/oneapi/mkl/
                          | 2022.2.0/lib/intel64/libmkl_core.so;/usr/lib/libpt
                          | hread.a;/usr/lib/libm.so
 LAPACK                   | /opt/intel/oneapi/mkl/2022.2.0/lib/intel64/libmkl_
                          | lapack95_lp64.a;/opt/intel/oneapi/mkl/2022.2.0/lib
                          | /intel64/libmkl_intel_lp64.so
 Static linking           | OFF
 Last Git revision        | e1f37defdc6d16270410656ab518925ba0021fe3
 Git branch               | pde-london
 Configuration time       | 2022-11-07 16:03:31.346140

 * Sequential calculation.


   Content of the .dal input file
 ----------------------------------

**DALTON
.RUN PROPER
.DIRECT
.PELIB
*PELIB
.ITERATIVE
1.0d-12
.PDE
final.h5
**WAVE FUN
.HF
**PROPER
.SHIELD
**END OF


   Content of the .mol file
 ----------------------------

BASIS
STO-3G


AtomTypes=2 Charge=0 Angstrom NoSymmetry
Charge=8.0 Atoms=1
O    0.000000    0.000000    0.000000
Charge=1.0 Atoms=2
H    0.784000   -0.554000    0.000000
H   -0.784000   -0.554000    0.000000



       *******************************************************************
       *********** Output from DALTON general input processing ***********
       *******************************************************************

 --------------------------------------------------------------------------------
   Overall default print level:    0
   Print level for DALTON.STAT:    1

    AO-direct calculation (in sections where implemented)
    HERMIT 1- and 2-electron integral sections will be executed
    "Old" integral transformation used (limited to max 255 basis functions)
    Wave function sections will be executed (SIRIUS module)
    Static molecular property section will be executed (ABACUS module)
    Environment effects are included (PElib)
 --------------------------------------------------------------------------------


   ****************************************************************************
   *************** Output of molecule and basis set information ***************
   ****************************************************************************


    The two title cards from your ".mol" input:
    --------------------------------------------------------------------------------
 1: 
 2: 
    --------------------------------------------------------------------------------

  Coordinates are entered in Angstrom and converted to atomic units.
          - Conversion factor : 1 bohr = 0.52917721 A

  Atomic type no.    1
  --------------------
  Nuclear charge:   8.00000
  Number of symmetry independent centers:    1
  Number of basis sets to read;    2
  Basis set file used for this atomic type with Z =   8 :
     "/home/reinholdt/Programs/dalton/build-pde-london/basis/STO-3G"

  Atomic type no.    2
  --------------------
  Nuclear charge:   1.00000
  Number of symmetry independent centers:    2
  Number of basis sets to read;    2
  Basis set file used for this atomic type with Z =   1 :
     "/home/reinholdt/Programs/dalton/build-pde-london/basis/STO-3G"


                         SYMGRP: Point group information
                         -------------------------------

@    Point group: C1 


                                 Isotopic Masses
                                 ---------------

                           O          15.994915
                           H           1.007825
                           H           1.007825

                       Total mass:    18.010565 amu
                       Natural abundance:  99.730 %

 Center-of-mass coordinates (a.u.):    0.000000   -0.117165    0.000000
 Center-of-mass coordinates (Angs):    0.000000   -0.062001    0.000000


  Atoms and basis sets
  --------------------

  Number of atom types :    2
  Total number of atoms:    3

  Basis set used is "STO-3G" from the basis set library.

  label    atoms   charge   prim   cont     basis
  ----------------------------------------------------------------------
  O           1    8.0000    15     5      [6s3p|2s1p]                                        
  H           2    1.0000     3     1      [3s|1s]                                            
  ----------------------------------------------------------------------
  total:      3   10.0000    21     7
  ----------------------------------------------------------------------

  Threshold for neglecting AO integrals:  1.00D-12


  Cartesian Coordinates (a.u.)
  ----------------------------

  Total number of coordinates:    9
  O       :     1  x   0.0000000000    2  y   0.0000000000    3  z   0.0000000000
  H       :     4  x   1.4815452820    5  y  -1.0469082732    6  z   0.0000000000
  H       :     7  x  -1.4815452820    8  y  -1.0469082732    9  z   0.0000000000


   Interatomic separations (in Angstrom):
   --------------------------------------

            O           H           H     
            ------      ------      ------
 O     :    0.000000
 H     :    0.959985    0.000000
 H     :    0.959985    1.568000    0.000000


  Max    interatomic separation is    1.5680 Angstrom (    2.9631 Bohr)
  between atoms    3 and    2, "H     " and "H     ".

  Min HX interatomic separation is    0.9600 Angstrom (    1.8141 Bohr)


  Bond distances (Angstrom):
  --------------------------

                  atom 1     atom 2       distance
                  ------     ------       --------
  bond distance:  H          O            0.959985
  bond distance:  H          O            0.959985


  Bond angles (degrees):
  ----------------------

                  atom 1     atom 2     atom 3         angle
                  ------     ------     ------         -----
  bond angle:     H          O          H            109.507




 Principal moments of inertia (u*A**2) and principal axes
 --------------------------------------------------------

   IA       0.549401          1.000000    0.000000    0.000000
   IB       1.238931          0.000000    1.000000    0.000000
   IC       1.788332          0.000000    0.000000    1.000000


 Rotational constants
 --------------------

@    The molecule is planar.

               A                   B                   C

         919873.1556         407915.2565         282597.9582 MHz
           30.683666           13.606588            9.426453 cm-1


@  Nuclear repulsion energy :    9.157239627730 Hartree

  Reading potential input file for polarizable embedding calculation
 
    .------------------------------------------------.
    | Information from polarizable embedding library |
    `------------------------------------------------´

      Number of classical sites:      3

      Dipole-dipole polarizabilities.

      Iterative solver for induced moments will be used
      with convergence threshold: 1.0E-12

      Electrostatic interactions with fragment densities are included

      Repulsion operator will be used for fragment densities
 


                     .---------------------------------------.
                     | Starting in Integral Section (HERMIT) |
                     `---------------------------------------'



 ***************************************************************************************
 ****************** Output from **INTEGRALS input processing (HERMIT) ******************
 ***************************************************************************************


 - Using defaults, no **INTEGRALS input found

 Default print level:        1

 Calculation of one-electron Hamiltonian integrals.

 Center of mass  (bohr):      0.000000000000     -0.117164600942      0.000000000000
 Operator center (bohr):      0.000000000000      0.000000000000      0.000000000000
 Gauge origin    (bohr):      0.000000000000      0.000000000000      0.000000000000
 Dipole origin   (bohr):      0.000000000000      0.000000000000      0.000000000000


     ************************************************************************
     ************************** Output from HERINT **************************
     ************************************************************************



                      Nuclear contribution to dipole moments
                      --------------------------------------

                 au               Debye          C m (/(10**-30)

      x      0.00000000         0.00000000         0.00000000
      y     -2.09381655        -5.32195048       -17.75211595
      z      0.00000000         0.00000000         0.00000000


  Total CPU  time used in HERMIT:   0.00 seconds
  Total wall time used in HERMIT:   0.00 seconds


                        .----------------------------------.
                        | End of Integral Section (HERMIT) |
                        `----------------------------------'



                   .--------------------------------------------.
                   | Starting in Wave Function Section (SIRIUS) |
                   `--------------------------------------------'


 *** Output from Huckel module :

     Using EWMO model:          T
     Using EHT  model:          F
     Number of Huckel orbitals each symmetry:    7

 EWMO - Energy Weighted Maximum Overlap - is a Huckel type method,
        which normally is better than Extended Huckel Theory.
 Reference: Linderberg and Ohrn, Propagators in Quantum Chemistry (Wiley, 1973)

 Huckel EWMO eigenvalues for symmetry :  1
          -20.684922      -1.605860      -0.788573      -0.681099      -0.616200
           -0.235307      -0.167939

 **********************************************************************
 *SIRIUS* a direct, restricted step, second order MCSCF program       *
 **********************************************************************

 
     Date and time (Linux)  : Thu Nov 24 15:13:30 2022
     Host name              : loke                                    

 Title lines from ".mol" input file:
     
     

 Print level on unit LUPRI =   2 is   0
 Print level on unit LUW4  =   2 is   5

@    Restricted, closed shell Hartree-Fock calculation.

@    Time-dependent Hartree-Fock calculation (random phase approximation).
 Fock matrices are calculated directly without use of integrals on disk.

 Initial molecular orbitals are obtained according to
 ".MOSTART EWMO  " input option

@    QM part is embedded in an environment :

@         Model: PE

     Wave function specification
     ============================

     Wave function environment is modeled using the
     polarizable embedding model (PE library).

@    Wave function type        --- PE-HF ---
@    Number of closed shell electrons          10
@    Number of electrons in active shells       0
@    Total charge of the molecule               0

@    Spin multiplicity and 2 M_S                1         0
@    Total number of symmetries                 1 (point group: C1 )
@    Reference state symmetry                   1 (irrep name : A  )

     Orbital specifications
     ======================
@    Abelian symmetry species          All |    1
@                                          |  A  
                                       --- |  ---
@    Occupied SCF orbitals               5 |    5
@    Secondary orbitals                  2 |    2
@    Total number of orbitals            7 |    7
@    Number of basis functions           7 |    7

     Optimization information
     ========================
@    Number of configurations                 1
@    Number of orbital rotations             10
     ------------------------------------------
@    Total number of variables               11

     Maximum number of Fock   iterations      0
     Maximum number of DIIS   iterations     60
     Maximum number of QC-SCF iterations     60
     Threshold for SCF convergence     1.00D-05


 ***********************************************
 ***** DIIS acceleration of SCF iterations *****
 ***********************************************

 C1-DIIS algorithm; max error vectors =    8

 Iter      Total energy     Embedding energy      Error norm     Delta(E)
 -----------------------------------------------------------------------------
   1  Screening settings (-IFTHRS, JTDIIS, DIFDEN, times)   -5    1    F  5.20D-04  0.00D+00
@  1  -74.7830510244      0.131249414282        7.81203D-01   -7.48D+01
      Virial theorem: -V/T =      2.002603
@    MULPOP   O      -0.46; H       0.23; H       0.23; 
   1  Level shift: doubly occupied orbital energies shifted by -2.00D-01
 -----------------------------------------------------------------------------
   2  Screening settings (-IFTHRS, JTDIIS, DIFDEN, times)   -6    2    F  4.45D-04  1.00D-03
@  2  -74.8357583319      0.121800629367        2.51371D-01   -5.27D-02
      Virial theorem: -V/T =      2.004763
@    MULPOP   O      -0.35; H       0.18; H       0.18; 
   2  Level shift: doubly occupied orbital energies shifted by -1.00D-01
 -----------------------------------------------------------------------------
   3  Screening settings (-IFTHRS, JTDIIS, DIFDEN, times)   -7    3    F  4.58D-04  1.00D-03
@  3  -74.8428629679      0.116480861765        4.97324D-02   -7.10D-03
      Virial theorem: -V/T =      2.004018
@    MULPOP   O      -0.33; H       0.16; H       0.16; 
   3  Level shift: doubly occupied orbital energies shifted by -2.50D-02
 -----------------------------------------------------------------------------
   4  Screening settings (-IFTHRS, JTDIIS, DIFDEN, times)   -7    4    F  4.34D-04  1.00D-03
@  4  -74.8432207591      0.114843821836        1.10240D-02   -3.58D-04
      Virial theorem: -V/T =      2.003744
@    MULPOP   O      -0.32; H       0.16; H       0.16; 
 -----------------------------------------------------------------------------
   5  Screening settings (-IFTHRS, JTDIIS, DIFDEN, times)   -8    5    F  4.55D-04  1.00D-03
@  5  -74.8432477361      0.114371802689        2.20856D-04   -2.70D-05
      Virial theorem: -V/T =      2.003687
@    MULPOP   O      -0.32; H       0.16; H       0.16; 
 -----------------------------------------------------------------------------
   6  Screening settings (-IFTHRS, JTDIIS, DIFDEN, times)   -9    6    F  4.34D-04  1.00D-03
@  6  -74.8432477438      0.114361851121        1.20096D-05   -7.72D-09
      Virial theorem: -V/T =      2.003689
@    MULPOP   O      -0.32; H       0.16; H       0.16; 
 -----------------------------------------------------------------------------
   7  Screening settings (-IFTHRS, JTDIIS, DIFDEN, times)   -9    7    F  4.33D-04  1.00D-03
@  7  -74.8432477439      0.114361665274        1.86210D-06   -1.74D-11

@ *** DIIS converged in   7 iterations !
@     Converged SCF energy, gradient:    -74.843247743855    1.86D-06
    - total time used in SIRFCK :              0.00 seconds


 *** SCF orbital energy analysis ***
   (incl. contribution from polarizable embedding potential)

 Number of electrons        :   10
 Closed shell orbitals      :    5

 Sym       Hartree-Fock orbital energies

1 A     -20.21424673    -1.21820635    -0.59518831    -0.35619831    -0.34868171
          0.62616480     0.77835183

    E(LUMO) :     0.62616480 au (symmetry 1)
  - E(HOMO) :    -0.34868171 au (symmetry 1)
  ------------------------------------------
    gap     :     0.97484651 au

    .--------------------------------------------------.
    | Final results from polarizable embedding library |
    `--------------------------------------------------´

        Polarizable embedding energy contributions:
       ---------------------------------------------

       Polarization contributions:
            Electronic                -0.087279047949
            Nuclear                    0.084453755332
            Total                     -0.002825292617

       Fragment density contributions:
            Electronic                 0.586748120912
            Nuclear                   -0.651828641188
            Polarization               0.000000000000
            Repulsion                  0.182267478166
            Total                      0.117186957891

       Total PE energy:                0.114361665274
            (excl. multipole-multipole interaction energy)

 --- Writing SIRIFC interface file

--------------------------------------------------------------------------------


     .--------------------------------------------------.
     | HF-SCF KT IPs [a.u. & eV] from Koopmans' theorem |
     `--------------------------------------------------'


     HF-SCF KT symmetry 1 ( A  ) in point group C1  -- 5 principal poles with pole strength 1

   ============  ============  ============  ============  ============
      20.214247      1.218206      0.595188      0.356198      0.348682
     550.057634     33.149081     16.195898      9.692649      9.488112
   ============  ============  ============  ============  ============

@ Summary of HF-SCF KT ionization potentials [eV]:

@ Symmetry 1 (A  ) :   550.058      33.149      16.196       9.693       9.488

  === End of HF-SCF KT output ===
--------------------------------------------------------------------------------



                           +---------------------------+
                           ! Writing FOCKMAT in siropt !
                           +---------------------------+


 CPU and wall time for SCF :       0.019       0.019


                       .-----------------------------------.
                       | --- Final results from SIRIUS --- |
                       `-----------------------------------'


@    Spin multiplicity:           1
@    Spatial symmetry:            1 ( irrep  A   in C1  )
@    Total charge of molecule:    0

@    Final HF energy:             -74.843247743855                 
@    Nuclear repulsion:             9.157239627730
@    Electronic energy:           -84.114849036858
@    Embedding energy:              0.114361665274

@    Final gradient norm:           0.000001862100

 
     Date and time (Linux)  : Thu Nov 24 15:13:30 2022
     Host name              : loke                                    

File label for MO orbitals:  24Nov22   FOCKDIIS

 (Only coefficients > 0.0100 are printed.)

 Molecular orbitals for symmetry species 1  (A  )
 ------------------------------------------------

    Orbital         1        2        3        4        5        6        7
   1 O   :1s    -0.9942   0.2300   0.0000  -0.0000  -0.1147   0.1272   0.0000
   2 O   :1s    -0.0263  -0.8213   0.0000   0.0001   0.5933  -0.8579  -0.0000
   3 O   :2px   -0.0000  -0.0000  -0.5949  -0.0000  -0.0000   0.0000  -1.0059
   4 O   :2py    0.0044   0.1615  -0.0000   0.0001   0.7532   0.7473   0.0000
   5 O   :2pz    0.0000   0.0000   0.0000  -1.0000   0.0001   0.0000  -0.0000
   6 H   :1s     0.0060  -0.1635  -0.4463  -0.0000  -0.3023   0.7887   0.8312
   7 H   :1s     0.0060  -0.1635   0.4463  -0.0000  -0.3023   0.7887  -0.8312

  Total CPU  time used in SIRIUS :   0.02 seconds
  Total wall time used in SIRIUS :   0.02 seconds

 
     Date and time (Linux)  : Thu Nov 24 15:13:30 2022
     Host name              : loke                                    


                     .---------------------------------------.
                     | End of Wave Function Section (SIRIUS) |
                     `---------------------------------------'



        *****************************************************************
        ******** Output from **PROPE input processing for ABACUS ********
        *****************************************************************

     Environment effects are included through the PE library


 The following molecular properties will be calculated in this run:
 ------------------------------------------------------------------

 Default print level:        0

      Nuclear magnetic shieldings
      Direct calculation - no two-electron integrals written or read.
      Natural orbital connection is used
      for perturbation dependent basis sets.
     Environment effects are included through the PE library

 Center of mass dipole origin  :    0.000000   -0.117165    0.000000

 Center of mass gauge origin   :    0.000000   -0.117165    0.000000


                 .------------------------------------------------.
                 | Starting in Static Property Section (ABACUS) - |
                 `------------------------------------------------'


 
     Date and time (Linux)  : Thu Nov 24 15:13:30 2022
     Host name              : loke                                    
    Convergence for "MAGFLD.1". Last residual and threshold:   0.00000   0.00010;  # trial vectors: 1
    Convergence for "MAGFLD.2". Last residual and threshold:   0.00000   0.00010;  # trial vectors: 1
    Convergence for "MAGFLD.3". Last residual and threshold:   0.00000   0.00010;  # trial vectors: 4


   ***************************************************************************
   ************************ FINAL RESULTS from ABACUS ************************
   ***************************************************************************


 
     Date and time (Linux)  : Thu Nov 24 15:13:30 2022
     Host name              : loke                                    


                             Molecular geometry (au)
                             -----------------------

 O          0.0000000000            0.0000000000            0.0000000000
 H          1.4815452820           -1.0469082732            0.0000000000
 H         -1.4815452820           -1.0469082732            0.0000000000





                        Molecular wave function and energy
                        ----------------------------------

     Spatial symmetry   1 ( A   )
     Spin multiplicity  1
     2 * M_S            0
     State number       1
     Total charge       0

     Total energy        -74.8432477439 au (Hartrees)
                         -2036.58836988 eV
                           -196500.9167 kJ/mol
                            -46964.8462 kcal/mol


                   Scalar Breit-Pauli relativistic corrections
                   -------------------------------------------

     Darwin correction:                          0.1295506174 au
     Mass-velocity correction:                  -0.1670650086 au

     Total relativistic correction:             -0.0375143912 au ( 0.0501%)
     Non-relativistic + relativistic energy:   -74.8807621351 au



      (Note that these corrections are NOT included in the results below.)


                                  Dipole moment
                                  -------------

                 au               Debye          C m (/(10**-30)
              0.574297           1.459718           4.869094


                             Dipole moment components
                             ------------------------

                 au               Debye          C m (/(10**-30)

      x     -0.00000000        -0.00000000        -0.00000000
      y     -0.57429719        -1.45971776        -4.86909433
      z     -0.00000000        -0.00000000        -0.00000000


   Units:   1 a.u. =   2.54175 Debye 
            1 a.u. =   8.47835 (10**-30) C m (SI)




  ******************************************************************************
  ************************ ABACUS - CHEMICAL SHIELDINGS ************************
  ******************************************************************************



                 Shielding tensors in symmetry coordinates (ppm)
                 -----------------------------------------------

                       Bx             By             Bz

        O    x   354.32962815    -0.00007305    -0.00000965
        O    y    -0.00008141   365.12881509     0.00010423
        O    z    -0.00000296    -0.00006151   357.11258975

        H    x    41.12276821    -7.00442653    -0.00000361
        H    y    -3.05497563    33.11036936    -0.00000076
        H    z     0.00000052    -0.00000109    27.50203397

        H    x    41.12276253     7.00442693     0.00000366
        H    y     3.05497768    33.11036100    -0.00000187
        H    z    -0.00000033    -0.00000144    27.50202431





  Chemical shielding for O     :
  ==============================


  Shielding constant:    358.8570 ppm
  Anisotropy:              9.4077 ppm
  Asymmetry:               0.4437    

  S parameter:             9.7115 ppm
  A parameter:             0.0001 ppm


  Total shielding tensor (ppm):
  -----------------------------

                    Bx             By             Bz

  O      x   354.32962815    -0.00007305    -0.00000965
  O      y    -0.00008141   365.12881509     0.00010423
  O      z    -0.00000296    -0.00006151   357.11258975


  Diamagnetic and paramagnetic contributions (ppm):
  -------------------------------------------------

                 Bx         By         Bz            Bx         By         Bz

  O      x   458.4224    -0.0000    -0.0000     -104.0927    -0.0001    -0.0000
  O      y     0.0000   479.9632    -0.0000       -0.0001  -114.8344     0.0001
  O      z     0.0000     0.0000   505.1935       -0.0000    -0.0001  -148.0810

  Diamagnetic contribution:    481.193031         Paramagnetic:    -122.336020


  Antisymmetric and traceless symmetric parts (ppm):
  --------------------------------------------------

                 Bx         By         Bz            Bx         By         Bz

  O      x     0.0000     0.0000    -0.0000       -4.5274    -0.0001    -0.0000
  O      y    -0.0000     0.0000     0.0001       -0.0001     6.2718     0.0000
  O      z     0.0000    -0.0001     0.0000       -0.0000     0.0000    -1.7444


  Principal values and axes:
  --------------------------

  O         354.329628  =  358.86  -   4.53:     1.000000  0.000007  0.000002
  O         357.112590  =  358.86  -   1.74:    -0.000002 -0.000003  1.000000
  O         365.128815  =  358.86  +   6.27:    -0.000007  1.000000  0.000003


  Chemical shielding for H     :
  ==============================


  Shielding constant:     33.9117 ppm
  Anisotropy:             14.4526 ppm
  Asymmetry:               0.3305    

  S parameter:            14.7133 ppm
  A parameter:             1.9747 ppm


  Total shielding tensor (ppm):
  -----------------------------

                    Bx             By             Bz

  H      x    41.12276821    -7.00442653    -0.00000361
  H      y    -3.05497563    33.11036936    -0.00000076
  H      z     0.00000052    -0.00000109    27.50203397


  Diamagnetic and paramagnetic contributions (ppm):
  -------------------------------------------------

                 Bx         By         Bz            Bx         By         Bz

  H      x    40.8382   -11.0054    -0.0000        0.2846     4.0009    -0.0000
  H      y    -9.0087    31.6604     0.0000        5.9537     1.4499    -0.0000
  H      z     0.0000     0.0000    23.2443        0.0000    -0.0000     4.2577

  Diamagnetic contribution:     31.914335         Paramagnetic:       1.997389


  Antisymmetric and traceless symmetric parts (ppm):
  --------------------------------------------------

                 Bx         By         Bz            Bx         By         Bz

  H      x     0.0000    -1.9747    -0.0000        7.2110    -5.0297    -0.0000
  H      y     1.9747     0.0000     0.0000       -5.0297    -0.8014    -0.0000
  H      z     0.0000    -0.0000     0.0000       -0.0000    -0.0000    -6.4097


  Principal values and axes:
  --------------------------

  H          27.502034  =   33.91  -   6.41:     0.000000  0.000000  1.000000
  H          30.686365  =   33.91  -   3.23:     0.434150  0.900841 -0.000000
  H          43.546773  =   33.91  +   9.64:     0.900841 -0.434150 -0.000000


  Chemical shielding for H     :
  ==============================


  Shielding constant:     33.9117 ppm
  Anisotropy:             14.4526 ppm
  Asymmetry:               0.3305    

  S parameter:            14.7133 ppm
  A parameter:             1.9747 ppm


  Total shielding tensor (ppm):
  -----------------------------

                    Bx             By             Bz

  H      x    41.12276253     7.00442693     0.00000366
  H      y     3.05497768    33.11036100    -0.00000187
  H      z    -0.00000033    -0.00000144    27.50202431


  Diamagnetic and paramagnetic contributions (ppm):
  -------------------------------------------------

                 Bx         By         Bz            Bx         By         Bz

  H      x    40.8382    11.0054     0.0000        0.2846    -4.0009     0.0000
  H      y     9.0087    31.6604     0.0000       -5.9537     1.4499    -0.0000
  H      z    -0.0000     0.0000    23.2443       -0.0000    -0.0000     4.2577

  Diamagnetic contribution:     31.914335         Paramagnetic:       1.997381


  Antisymmetric and traceless symmetric parts (ppm):
  --------------------------------------------------

                 Bx         By         Bz            Bx         By         Bz

  H      x     0.0000     1.9747     0.0000        7.2110     5.0297     0.0000
  H      y    -1.9747     0.0000    -0.0000        5.0297    -0.8014    -0.0000
  H      z    -0.0000     0.0000     0.0000        0.0000    -0.0000    -6.4097


  Principal values and axes:
  --------------------------

  H          27.502024  =   33.91  -   6.41:    -0.000000  0.000001  1.000000
  H          30.686356  =   33.91  -   3.23:    -0.434150  0.900841 -0.000001
  H          43.546768  =   33.91  +   9.64:     0.900841  0.434150  0.000000


                         +--------------------------------+
                         ! Summary of chemical shieldings !
                         +--------------------------------+

@1  Definitions from J. Mason, Solid state Nuc. Magn. Res. 2 (1993), 285

@1 London orbitals (GIAOs) has been used.

@1 atom   shielding       dia      para     skew      span     (aniso     asym)
@1 ----------------------------------------------------------------------------
@1 O       358.8570  481.1930 -122.3360    0.4846   10.7992    9.4077    0.4437
@1 H        33.9117   31.9143    1.9974    0.6031   16.0447   14.4526    0.3305
@1 H        33.9117   31.9143    1.9974    0.6031   16.0447   14.4526    0.3305



                         +--------------------------------+
                         ! Summary of chemical shieldings !
                         +--------------------------------+

@2  Definitions from Smith, Palke, and Grieg, Concepts in Mag. Res. 4 (1992), 107

@2 London orbitals (GIAOs) has been used.

@2 atom   shielding       dia      para     aniso      asym        S        A
@2 ----------------------------------------------------------------------------
@2 O       358.8570  481.1930 -122.3360    9.4077    0.4437    9.7115    0.0001
@2 H        33.9117   31.9143    1.9974   14.4526    0.3305   14.7133    1.9747
@2 H        33.9117   31.9143    1.9974   14.4526    0.3305   14.7133    1.9747



   Interatomic separations (in Angstrom):
   --------------------------------------

            O           H           H     
            ------      ------      ------
 O     :    0.000000
 H     :    0.959985    0.000000
 H     :    0.959985    1.568000    0.000000


  Max    interatomic separation is    1.5680 Angstrom (    2.9631 Bohr)
  between atoms    3 and    2, "H     " and "H     ".

  Min HX interatomic separation is    0.9600 Angstrom (    1.8141 Bohr)


  Bond distances (Angstrom):
  --------------------------

                  atom 1     atom 2       distance
                  ------     ------       --------
  bond distance:  H          O            0.959985
  bond distance:  H          O            0.959985


  Bond angles (degrees):
  ----------------------

                  atom 1     atom 2     atom 3         angle
                  ------     ------     ------         -----
  bond angle:     H          O          H            109.507


  Total CPU  time used in ABACUS:   0.02 seconds
  Total wall time used in ABACUS:   0.02 seconds


                   .-------------------------------------------.
                   | End of Static Property Section (ABACUS) - |
                   `-------------------------------------------'

  Total CPU  time used in DALTON:   0.05 seconds
  Total wall time used in DALTON:   0.05 seconds

 
     Date and time (Linux)  : Thu Nov 24 15:13:30 2022
     Host name              : loke                                    
