

     ************************************************************************
     *************** Dalton - An Electronic Structure Program ***************
     ************************************************************************

    This is output from DALTON release Dalton2022.0-dev (2022)
         ( Web site: http://daltonprogram.org )

   ----------------------------------------------------------------------------

    NOTE:
     
    Dalton is an experimental code for the evaluation of molecular
    properties using (MC)SCF, DFT, CI, and CC wave functions.
    The authors accept no responsibility for the performance of
    the code or for the correctness of the results.
     
    The code (in whole or part) is provided under a licence and
    is not to be reproduced for further distribution without
    the written permission of the authors or their representatives.
     
    See the home page "http://daltonprogram.org" for further information.
     
    If results obtained with this code are published,
    the appropriate citations would be both of:
     
       K. Aidas, C. Angeli, K. L. Bak, V. Bakken,
       R. Bast, L. Boman, O. Christiansen, R. Cimiraglia,
       S. Coriani, P. Dahle, E. K. Dalskov, U. Ekstroem,
       T. Enevoldsen, J. J. Eriksen, P. Ettenhuber, B. Fernandez,
       L. Ferrighi, H. Fliegl, L. Frediani, K. Hald, A. Halkier,
       C. Haettig, H. Heiberg, T. Helgaker, A. C. Hennum,
       H. Hettema, E. Hjertenaes, S. Hoest, I.-M. Hoeyvik,
       M. F. Iozzi, B. Jansik, H. J. Aa. Jensen, D. Jonsson,
       P. Joergensen, J. Kauczor, S. Kirpekar,
       T. Kjaergaard, W. Klopper, S. Knecht, R. Kobayashi, H. Koch,
       J. Kongsted, A. Krapp, K. Kristensen, A. Ligabue,
       O. B. Lutnaes, J. I. Melo, K. V. Mikkelsen, R. H. Myhre,
       C. Neiss, C. B. Nielsen, P. Norman, J. Olsen,
       J. M. H. Olsen, A. Osted, M. J. Packer, F. Pawlowski,
       T. B. Pedersen, P. F. Provasi, S. Reine, Z. Rinkevicius,
       T. A. Ruden, K. Ruud, V. Rybkin, P. Salek, C. C. M. Samson,
       A. Sanchez de Meras, T. Saue, S. P. A. Sauer,
       B. Schimmelpfennig, K. Sneskov, A. H. Steindal,
       K. O. Sylvester-Hvid, P. R. Taylor, A. M. Teale,
       E. I. Tellgren, D. P. Tew, A. J. Thorvaldsen, L. Thoegersen,
       O. Vahtras, M. A. Watson, D. J. D. Wilson, M. Ziolkowski
       and H. Agren,
       "The Dalton quantum chemistry program system",
       WIREs Comput. Mol. Sci. 2014, 4:269–284 (doi: 10.1002/wcms.1172)
     
    and
     
       Dalton, a molecular electronic structure program,
       Release Dalton2022.0-dev (2022), see http://daltonprogram.org
   ----------------------------------------------------------------------------

    Authors in alphabetical order (Major contribution(s) in parenthesis):

  Kestutis Aidas,              Vilnius University,        Lithuania   (QM/MM)
  Celestino Angeli,            University of Ferrara,     Italy       (NEVPT2)
  Juan J. Aucar,               Northeast National UniversiArgentina   (LRESC, Relativistic Effects on EFG)
  Keld L. Bak,                 UNI-C,                     Denmark     (AOSOPPA, non-adiabatic coupling, magnetic properties)
  Vebjoern Bakken,             University of Oslo,        Norway      (DALTON; geometry optimizer, symmetry detection)
  Radovan Bast,                UiT The Arctic U. of NorwayNorway      (DALTON installation and execution frameworks)
  Pablo Baudin,                University of Valencia,    Spain       (Cholesky excitation energies)
  Linus Boman,                 NTNU,                      Norway      (Cholesky decomposition and subsystems)
  Bruno N. Cabral Tenorio,     Technical Univ. of Denmark,Denmark     (Lanczos-based CC methods)
  Ove Christiansen,            Aarhus University,         Denmark     (CC module)
  Renzo Cimiraglia,            University of Ferrara,     Italy       (NEVPT2)
  Sonia Coriani,               Technical Univ. of Denmark,Denmark     (CC and RESPONS modules)
  Janusz Cukras,               University of Warsaw,      Poland      (MChD in RESPONS)
  Paal Dahle,                  University of Oslo,        Norway      (Parallelization)
  Erik K. Dalskov,             UNI-C,                     Denmark     (SOPPA)
  Thomas Enevoldsen,           Univ. of Southern Denmark, Denmark     (SOPPA)
  Janus J. Eriksen,            Aarhus University,         Denmark     (Polarizable embedding, TDA)
  Rasmus Faber,                Technical Univ. of Denmark,Denmark     (Vib.avg. NMR w. SOPPA, parallel AO-SOPPA, CVS-CC and EOMCC)
  Tobias Fahleson,             KTH Stockholm,             Sweden      (Damped cubic response)
  Berta Fernandez,             U. of Santiago de CompostelSpain       (Doublet spin, ESR in RESPONS)
  Lara Ferrighi,               Aarhus University,         Denmark     (PCM Cubic response)
  Heike Fliegl,                University of Oslo,        Norway      (CCSD(R12))
  Luca Frediani,               UiT The Arctic U. of NorwayNorway      (PCM)
  Emmanuel Fromager,           Univ. Strasbourg,          France      (MC-srDFT)
  Bin Gao,                     UiT The Arctic U. of NorwayNorway      (Gen1Int library)
  Andre S. P. Gomes,           CNRS/Universite de Lille,  France      (Frozen density embedding)
  Christof Haettig,            Ruhr-University Bochum,    Germany     (CC module)
  Kasper Hald,                 Aarhus University,         Denmark     (CC module)
  Asger Halkier,               Aarhus University,         Denmark     (CC module)
  Frederik Beyer Hansen,       University of Copenhagen,  Denmark     (Parallel AO-SOPPA)
  Erik D. Hedegaard,           Univ. of Southern Denmark, Denmark     (Polarizable embedding, QM/MM, and MC-srDFT)
  Hanne Heiberg,               University of Oslo,        Norway      (Geometry analysis, selected one-electron integrals)
  Trygve Helgaker,             University of Oslo,        Norway      (DALTON; ABACUS, ERI, DFT modules, London, and much more)
  Alf Christian Hennum,        University of Oslo,        Norway      (Parity violation)
  Hinne Hettema,               University of Auckland,    New Zealand (Quadratic response in RESPONS; SIRIUS supersymmetry)
  Andreas E. Hillers-Bendtsen, University of Copenhagen,  Denmark     (MP3)
  Eirik Hjertenaes,            NTNU,                      Norway      (Cholesky decomposition)
  Nicolai Machholdt Hoeyer,    Aarhus University,         Denmark     (MP3)
  Pi A. B. Haase,              University of Copenhagen,  Denmark     (Triplet AO-SOPPA)
  Maria Francesca Iozzi,       University of Oslo,        Norway      (RPA)
  Christoph Jacob,             TU Braunschweig            Germany     (Frozen density embedding)
  Brano Jansik,                Technical Univ. of Ostrava Czech Rep.  (DFT cubic response)
  Hans Joergen Aa. Jensen,     Univ. of Southern Denmark, Denmark     (DALTON; SIRIUS, RESPONS, ABACUS, MC-srDFT, and much more)
  Dan Jonsson,                 UiT The Arctic U. of NorwayNorway      (Cubic response in RESPONS module)
  Poul Joergensen,             Aarhus University,         Denmark     (RESPONS, ABACUS, and CC modules)
  Maciej Kaminski,             University of Warsaw,      Poland      (CPPh in RESPONS)
  Joanna Kauczor,              Linkoeping University,     Sweden      (Complex polarization propagator (CPP) module)
  Sheela Kirpekar,             Univ. of Southern Denmark, Denmark     (Mass-velocity & Darwin integrals)
  Frederik Oersted Kjeldal,    Technical Univ. of Denmark,Denmark     (MP3)
  Erik Kjellgren,              Univ. of Southern Denmark, Denmark     (MC-srDFT)
  Wim Klopper,                 KIT Karlsruhe,             Germany     (R12 code in CC, SIRIUS, and ABACUS modules)
  Stefan Knecht,               ETH Zurich,                Switzerland (Parallel CI and MCSCF, MC-srDFT)
  Rika Kobayashi,              Australian National Univ., Australia   (DIIS in CC, London in MCSCF)
  Henrik Koch,                 NTNU,                      Norway      (CC module, Cholesky decomposition)
  Jacob Kongsted,              Univ. of Southern Denmark, Denmark     (Polarizable embedding, polarizable density embedding, QM/MM)
  Andrea Ligabue,              University of Modena,      Italy       (CTOCD, AOSOPPA)
  Nanna H. List,               Univ. of Southern Denmark, Denmark     (Polarizable embedding)
  Ola B. Lutnaes,              University of Oslo,        Norway      (DFT Hessian)
  Juan I. Melo,                University of Buenos Aires,Argentina   (LRESC, Relativistic Effects on NMR Shieldings)
  Kurt V. Mikkelsen,           University of Copenhagen,  Denmark     (MC-SCRF, QM/MM, and MP3)
  Rolf H. Myhre,               NTNU,                      Norway      (Subsystems and CC3)
  Christian Neiss,             Univ. Erlangen-Nuernberg,  Germany     (CCSD(R12))
  Christian B. Nielsen,        University of Copenhagen,  Denmark     (QM/MM)
  Patrick Norman,              KTH Stockholm,             Sweden      (Cubic response and complex frequency response in RESPONS)
  Jeppe Olsen,                 Aarhus University,         Denmark     (SIRIUS CI/density modules)
  Jogvan Magnus H. Olsen,      Aarhus University,         Denmark     (Polarizable embedding and polarizable density embedding)
  Anders Osted,                Copenhagen University,     Denmark     (QM/MM)
  Martin J. Packer,            University of Sheffield,   UK          (SOPPA)
  Filip Pawlowski,             Kazimierz Wielki UniversityPoland      (CC3)
  Morten N. Pedersen,          Univ. of Southern Denmark, Denmark     (Polarizable embedding)
  Thomas B. Pedersen,          University of Oslo,        Norway      (Cholesky decomposition)
  Patricio F. Provasi,         University of Northeastern,Argentina   (Analysis of coupling constants in localized orbitals)
  Peter Reinholdt,             Univ. of Southern Denmark, Denmark     (Polarizable embedding and polarizable density embedding)
  Zilvinas Rinkevicius,        KTH Stockholm,             Sweden      (open-shell DFT, ESR)
  Elias Rudberg,               KTH Stockholm,             Sweden      (DFT grid and basis info)
  Torgeir A. Ruden,            University of Oslo,        Norway      (Numerical derivatives in ABACUS)
  Kenneth Ruud,                UiT The Arctic U. of NorwayNorway      (DALTON; ABACUS magnetic properties and much more)
  Pawel Salek,                 KTH Stockholm,             Sweden      (DALTON; DFT code)
  Claire C. M. Samson,         University of Karlsruhe    Germany     (Boys localization, r12 integrals in ERI)
  Alfredo Sanchez de Meras,    University of Valencia,    Spain       (CC module, Cholesky decomposition)
  Trond Saue,                  Paul Sabatier University,  France      (direct Fock matrix construction)
  Stephan P. A. Sauer,         University of Copenhagen,  Denmark     (SOPPA(CCSD), SOPPA prop., AOSOPPA, vibrational g-factors)
  Bernd Schimmelpfennig,       Forschungszentrum KarlsruheGermany     (AMFI module)
  Anna K. Schnack-Petersen,    University of Copenhagen,  Denmark     (RPA(D) and HRPA(D) properties in AOSOPPA)
  Kristian Sneskov,            Aarhus University,         Denmark     (Polarizable embedding, QM/MM)
  Arnfinn H. Steindal,         UiT The Arctic U. of NorwayNorway      (parallel QM/MM, polarizable embedding)
  Casper Steinmann,            Aalborg University,        Denmark     (QFIT, polarizable embedding)
  K. O. Sylvester-Hvid,        University of Copenhagen,  Denmark     (MC-SCRF)
  Peter R. Taylor,             VLSCI/Univ. of Melbourne,  Australia   (Symmetry handling ABACUS, integral transformation)
  Andrew M. Teale,             University of Nottingham,  England     (DFT-AC, DFT-D)
  David P. Tew,                University of Bristol,     England     (CCSD(R12))
  Julien Toulouse,             Sorbonne Univ.,            France      (MC-srDFT)
  Olav Vahtras,                KTH Stockholm,             Sweden      (Triplet response, spin-orbit, ESR, TDDFT, open-shell DFT)
  Lucas Visscher,              Vrije Universiteit AmsterdaNetherlands (Frozen density embedding)
  David J. Wilson,             La Trobe University,       Australia   (DFT Hessian and DFT magnetizabilities)
  Luna Zamok,                  University of Copenhagen,  Denmark     (Block Lanczos RPA solver in SOPPA module)
  Hans Agren,                  KTH Stockholm,             Sweden      (SIRIUS module, RESPONS, MC-SCRF solvation)
 --------------------------------------------------------------------------------

     Date and time (Linux)  : Wed Aug  3 13:09:25 2022
     Host name              : adm-110765.pc.sdu.dk                    

 * Work memory size             :    64000000 =  488.28 megabytes.

 * Directories for basis set searches:
   1) /home/hjj/progs/gitDalton_master/build_master-WIP2_mpi/test/geoopt_mp2froz
   2) /home/hjj/progs/gitDalton_master/build_master-WIP2_mpi/basis


Compilation information
-----------------------

 Who compiled             | hjj
 Host                     | adm-110765.pc.sdu.dk
 System                   | Linux-5.15.0-43-generic
 CMake generator          | Unix Makefiles
 Processor                | x86_64
 64-bit integers          | OFF
 MPI                      | ON
 Fortran compiler         | /usr/bin/mpif90
 Fortran compiler version | GNU Fortran (Ubuntu 11.2.0-19ubuntu1) 11.2.0
 C compiler               | /usr/bin/mpicc
 C compiler version       | gcc (Ubuntu 11.2.0-19ubuntu1) 11.2.0
 C++ compiler             | /usr/bin/mpicxx
 C++ compiler version     | unknown
 BLAS                     | /usr/lib/x86_64-linux-gnu/libopenblas.so
 LAPACK                   | /usr/lib/x86_64-linux-gnu/liblapack.so
 Static linking           | OFF
 Last Git revision        | 47f98e2d99fa79d2859de1f71a27a6fc2b6a45c2
 Git branch               | WIP3
 Configuration time       | 2022-08-03 11:42:34.418341

 * Sequential calculation.


   Content of the .dal input file
 ----------------------------------

**DALTON INPUT
.RUN WAVEFUNCTION
.OPTIMIZE
**WAVE FUNCTIONS
.HF
.MP2
*SCF INPUT
*MP2 INPUT
.MP2 FROZEN
 2 1 2 1 0 0 0 0
**END OF DALTON INPUT


   Content of the .mol file
 ----------------------------

BASIS
STO-3G
1st order geometry optimization using MP2 frozen core
numerical gradients
Atomtypes=2 Integrals=1.00D-15 Generators=3  X  Y  Z
Charge=1.0 Atoms=2
H1    0.00000000          4.686595943         0.00000000               *
H2    4.058715599         2.343279074         0.00000000               *
Charge=6.0 Atoms=2
C1    0.00000000          2.636205494         0.00000000               *
C2    2.283034611         1.318102747         0.00000000               *


       *******************************************************************
       *********** Output from DALTON general input processing ***********
       *******************************************************************

 --------------------------------------------------------------------------------
   Overall default print level:    0
   Print level for DALTON.STAT:    1

    HERMIT 1- and 2-electron integral sections will be executed
    "Old" integral transformation used (limited to max 255 basis functions)
    Wave function sections will be executed (SIRIUS module)
 --------------------------------------------------------------------------------


 Chosen parameters for *OPTIMI :
 -------------------------------

 Default 1st order method will be used:   BFGS update.
 Optimization will be performed in redundant internal coordinates (by default).
 Model Hessian will be used as initial Hessian.
 The model Hessian parameters of Roland Lindh will be used.


 Trust region method will be used to control step (default).

 Convergence threshold for gradient set to :      1.00D-04
 Convergence threshold for energy set to   :      1.00D-06
 Convergence threshold for step set to     :      1.00D-04
 Number of convergence criteria set to     :   2


              >>>>>>>>>>>>>>>>>>>>>>>>>>>>>>>>>>>>>>>>>>>>>>>>>>>>>
              >>>>>>>>>> 1st Order Geometry Optimization >>>>>>>>>>
              >>>>>>>>>>>>>>>>>>>>>>>>>>>>>>>>>>>>>>>>>>>>>>>>>>>>>


 Reading .mol file to determine number of atoms for parallel runs.


   ****************************************************************************
   *************** Output of molecule and basis set information ***************
   ****************************************************************************


    The two title cards from your ".mol" input:
    ------------------------------------------------------------------------
 1: 1st order geometry optimization using MP2 frozen core                   
 2: numerical gradients                                                     
    ------------------------------------------------------------------------

  Atomic type no.    1
  --------------------
  Nuclear charge:   1.00000
  Number of symmetry independent centers:    2
  Number of basis sets to read;    2
  Basis set file used for this atomic type with Z =   1 :
     "/home/hjj/progs/gitDalton_master/build_master-WIP2_mpi/basis/STO-3G"

  Atomic type no.    2
  --------------------
  Nuclear charge:   6.00000
  Number of symmetry independent centers:    2
  Number of basis sets to read;    2
  Basis set file used for this atomic type with Z =   6 :
     "/home/hjj/progs/gitDalton_master/build_master-WIP2_mpi/basis/STO-3G"


                         SYMGRP: Point group information
                         -------------------------------

@    Point group: D2h

@  * The irrep name for each symmetry:    1: Ag     2: B3u    3: B2u    4: B1g    5: B1u    6: B2g    7: B3g    8: Au 


   * The point group was generated by:

      Reflection in the yz-plane
      Reflection in the xz-plane
      Reflection in the xy-plane

   * Group multiplication table

        |  E   C2z  C2y  C2x   i   Oxy  Oxz  Oyz
   -----+----------------------------------------
     E  |  E   C2z  C2y  C2x   i   Oxy  Oxz  Oyz
    C2z | C2z   E   C2x  C2y  Oxy   i   Oyz  Oxz
    C2y | C2y  C2x   E   C2z  Oxz  Oyz   i   Oxy
    C2x | C2x  C2y  C2z   E   Oyz  Oxz  Oxy   i 
     i  |  i   Oxy  Oxz  Oyz   E   C2z  C2y  C2x
    Oxy | Oxy   i   Oyz  Oxz  C2z   E   C2x  C2y
    Oxz | Oxz  Oyz   i   Oxy  C2y  C2x   E   C2z
    Oyz | Oyz  Oxz  Oxy   i   C2x  C2y  C2z   E 

   * Character table

        |  E   C2z  C2y  C2x   i   Oxy  Oxz  Oyz
   -----+----------------------------------------
    Ag  |   1    1    1    1    1    1    1    1
    B3u |   1   -1   -1    1   -1    1    1   -1
    B2u |   1   -1    1   -1   -1    1   -1    1
    B1g |   1    1   -1   -1    1    1   -1   -1
    B1u |   1    1   -1   -1   -1   -1    1    1
    B2g |   1   -1    1   -1    1   -1    1   -1
    B3g |   1   -1   -1    1    1   -1   -1    1
    Au  |   1    1    1    1   -1   -1   -1   -1

   * Direct product table

        | Ag   B3u  B2u  B1g  B1u  B2g  B3g  Au 
   -----+----------------------------------------
    Ag  | Ag   B3u  B2u  B1g  B1u  B2g  B3g  Au 
    B3u | B3u  Ag   B1g  B2u  B2g  B1u  Au   B3g
    B2u | B2u  B1g  Ag   B3u  B3g  Au   B1u  B2g
    B1g | B1g  B2u  B3u  Ag   Au   B3g  B2g  B1u
    B1u | B1u  B2g  B3g  Au   Ag   B3u  B2u  B1g
    B2g | B2g  B1u  Au   B3g  B3u  Ag   B1g  B2u
    B3g | B3g  Au   B1u  B2g  B2u  B1g  Ag   B3u
    Au  | Au   B3g  B2g  B1u  B1g  B2u  B3u  Ag 


                                 Isotopic Masses
                                 ---------------

                           H1  _1      1.007825
                           H1  _2      1.007825
                           H2  _1      1.007825
                           H2  _2      1.007825
                           H2  _3      1.007825
                           H2  _4      1.007825
                           C1  _1     12.000000
                           C1  _2     12.000000
                           C2  _1     12.000000
                           C2  _2     12.000000
                           C2  _3     12.000000
                           C2  _4     12.000000

                       Total mass:    78.046950 amu
                       Natural abundance:  93.495 %

 Center-of-mass coordinates (a.u.):    0.000000    0.000000    0.000000
 Center-of-mass coordinates (Angs):    0.000000    0.000000    0.000000


  Atoms and basis sets
  --------------------

  Number of atom types :    2
  Total number of atoms:   12

  Basis set used is "STO-3G" from the basis set library.

  label    atoms   charge   prim   cont     basis
  ----------------------------------------------------------------------
  H2          6    1.0000     3     1      [3s|1s]                                            
  C2          6    6.0000    15     5      [6s3p|2s1p]                                        
  ----------------------------------------------------------------------
  total:     12   42.0000   108    36
  ----------------------------------------------------------------------

  Threshold for neglecting AO integrals:  1.00D-15


  Cartesian Coordinates (a.u.)
  ----------------------------

  Total number of coordinates:   36
  H1  / 1 :     1  x   0.0000000000    2  y   4.6865959430    3  z   0.0000000000
  H1  / 2 :     4  x   0.0000000000    5  y  -4.6865959430    6  z   0.0000000000
  H2  / 1 :     7  x   4.0587155990    8  y   2.3432790740    9  z   0.0000000000
  H2  / 2 :    10  x  -4.0587155990   11  y   2.3432790740   12  z   0.0000000000
  H2  / 3 :    13  x   4.0587155990   14  y  -2.3432790740   15  z   0.0000000000
  H2  / 4 :    16  x  -4.0587155990   17  y  -2.3432790740   18  z   0.0000000000
  C1  / 1 :    19  x   0.0000000000   20  y   2.6362054940   21  z   0.0000000000
  C1  / 2 :    22  x   0.0000000000   23  y  -2.6362054940   24  z   0.0000000000
  C2  / 1 :    25  x   2.2830346110   26  y   1.3181027470   27  z   0.0000000000
  C2  / 2 :    28  x  -2.2830346110   29  y   1.3181027470   30  z   0.0000000000
  C2  / 3 :    31  x   2.2830346110   32  y  -1.3181027470   33  z   0.0000000000
  C2  / 4 :    34  x  -2.2830346110   35  y  -1.3181027470   36  z   0.0000000000


  Symmetry Coordinates
  --------------------

  Number of coordinates in each symmetry:     6    6    6    6    4    2    4    2

  Symmetry  Ag  ( 1)

    1   H1    y    [  2  -    5 ]/2
    2   H2    x    [  7  -   10  +   13  -   16 ]/4
    3   H2    y    [  8  +   11  -   14  -   17 ]/4
    4   C1    y    [ 20  -   23 ]/2
    5   C2    x    [ 25  -   28  +   31  -   34 ]/4
    6   C2    y    [ 26  +   29  -   32  -   35 ]/4

  Symmetry  B3u ( 2)

    7   H1    x    [  1  +    4 ]/2
    8   H2    x    [  7  +   10  +   13  +   16 ]/4
    9   H2    y    [  8  -   11  -   14  +   17 ]/4
   10   C1    x    [ 19  +   22 ]/2
   11   C2    x    [ 25  +   28  +   31  +   34 ]/4
   12   C2    y    [ 26  -   29  -   32  +   35 ]/4

  Symmetry  B2u ( 3)

   13   H1    y    [  2  +    5 ]/2
   14   H2    x    [  7  -   10  -   13  +   16 ]/4
   15   H2    y    [  8  +   11  +   14  +   17 ]/4
   16   C1    y    [ 20  +   23 ]/2
   17   C2    x    [ 25  -   28  -   31  +   34 ]/4
   18   C2    y    [ 26  +   29  +   32  +   35 ]/4

  Symmetry  B1g ( 4)

   19   H1    x    [  1  -    4 ]/2
   20   H2    x    [  7  +   10  -   13  -   16 ]/4
   21   H2    y    [  8  -   11  +   14  -   17 ]/4
   22   C1    x    [ 19  -   22 ]/2
   23   C2    x    [ 25  +   28  -   31  -   34 ]/4
   24   C2    y    [ 26  -   29  +   32  -   35 ]/4

  Symmetry  B1u ( 5)

   25   H1    z    [  3  +    6 ]/2
   26   H2    z    [  9  +   12  +   15  +   18 ]/4
   27   C1    z    [ 21  +   24 ]/2
   28   C2    z    [ 27  +   30  +   33  +   36 ]/4

  Symmetry  B2g ( 6)

   29   H2    z    [  9  -   12  +   15  -   18 ]/4
   30   C2    z    [ 27  -   30  +   33  -   36 ]/4

  Symmetry  B3g ( 7)

   31   H1    z    [  3  -    6 ]/2
   32   H2    z    [  9  +   12  -   15  -   18 ]/4
   33   C1    z    [ 21  -   24 ]/2
   34   C2    z    [ 27  +   30  -   33  -   36 ]/4

  Symmetry  Au  ( 8)

   35   H2    z    [  9  -   12  -   15  +   18 ]/4
   36   C2    z    [ 27  -   30  -   33  +   36 ]/4


   Interatomic separations (in Angstrom):
   --------------------------------------

            H1  _1      H1  _2      H2  _1      H2  _2      H2  _3      H2  _4
            ------      ------      ------      ------      ------      ------
 H1  _1:    0.000000
 H1  _2:    4.960080    0.000000
 H2  _1:    2.480047    4.295547    0.000000
 H2  _2:    2.480047    4.295547    4.295560    0.000000
 H2  _3:    4.295547    2.480047    2.480020    4.960074    0.000000
 H2  _4:    4.295547    2.480047    4.960074    2.480020    4.295560    0.000000
 C1  _1:    1.085020    3.875060    2.153366    2.153366    3.399462    3.399462
 C1  _2:    3.875060    1.085020    3.399462    3.399462    2.153366    2.153366
 C2  _1:    2.153367    3.399471    1.085011    3.399476    2.153352    3.875063
 C2  _2:    2.153367    3.399471    3.399476    1.085011    3.875063    2.153352
 C2  _3:    3.399471    2.153367    2.153352    3.875063    1.085011    3.399476
 C2  _4:    3.399471    2.153367    3.875063    2.153352    3.399476    1.085011

            C1  _1      C1  _2      C2  _1      C2  _2      C2  _3      C2  _4
            ------      ------      ------      ------      ------      ------
 C1  _1:    0.000000
 C1  _2:    2.790040    0.000000
 C2  _1:    1.395026    2.416249    0.000000
 C2  _2:    1.395026    2.416249    2.416260    0.000000
 C2  _3:    2.416249    1.395026    1.395020    2.790052    0.000000
 C2  _4:    2.416249    1.395026    2.790052    1.395020    2.416260    0.000000


  Max    interatomic separation is    4.9601 Angstrom (    9.3732 Bohr)
  between atoms    2 and    1, "H1  _2" and "H1  _1".

  Min HX interatomic separation is    1.0850 Angstrom (    2.0504 Bohr)

  Min YX interatomic separation is    1.3950 Angstrom (    2.6362 Bohr)


  Bond distances (Angstrom):
  --------------------------

                  atom 1     atom 2       distance
                  ------     ------       --------
  bond distance:  C1  _1     H1  _1       1.085020
  bond distance:  C1  _2     H1  _2       1.085020
  bond distance:  C2  _1     H2  _1       1.085011
  bond distance:  C2  _1     C1  _1       1.395026
  bond distance:  C2  _2     H2  _2       1.085011
  bond distance:  C2  _2     C1  _1       1.395026
  bond distance:  C2  _3     H2  _3       1.085011
  bond distance:  C2  _3     C1  _2       1.395026
  bond distance:  C2  _3     C2  _1       1.395020
  bond distance:  C2  _4     H2  _4       1.085011
  bond distance:  C2  _4     C1  _2       1.395026
  bond distance:  C2  _4     C2  _2       1.395020


  Bond angles (degrees):
  ----------------------

                  atom 1     atom 2     atom 3         angle
                  ------     ------     ------         -----
  bond angle:     H1  _1     C1  _1     C2  _1       120.000
  bond angle:     H1  _1     C1  _1     C2  _2       120.000
  bond angle:     C2  _1     C1  _1     C2  _2       120.000
  bond angle:     H1  _2     C1  _2     C2  _3       120.000
  bond angle:     H1  _2     C1  _2     C2  _4       120.000
  bond angle:     C2  _3     C1  _2     C2  _4       120.000
  bond angle:     H2  _1     C2  _1     C1  _1       120.000
  bond angle:     H2  _1     C2  _1     C2  _3       120.000
  bond angle:     C1  _1     C2  _1     C2  _3       120.000
  bond angle:     H2  _2     C2  _2     C1  _1       120.000
  bond angle:     H2  _2     C2  _2     C2  _4       120.000
  bond angle:     C1  _1     C2  _2     C2  _4       120.000
  bond angle:     H2  _3     C2  _3     C1  _2       120.000
  bond angle:     H2  _3     C2  _3     C2  _1       120.000
  bond angle:     C1  _2     C2  _3     C2  _1       120.000
  bond angle:     H2  _4     C2  _4     C1  _2       120.000
  bond angle:     H2  _4     C2  _4     C2  _2       120.000
  bond angle:     C1  _2     C2  _4     C2  _2       120.000




 Principal moments of inertia (u*A**2) and principal axes
 --------------------------------------------------------

   IA      88.654973          1.000000    0.000000    0.000000
   IB      88.655953          0.000000    1.000000    0.000000
   IC     177.310926          0.000000    0.000000    1.000000


 Rotational constants
 --------------------

@    The molecule is planar.

               A                   B                   C

           5700.5150           5700.4520           2850.2418 MHz
            0.190149            0.190147            0.095074 cm-1


@  Nuclear repulsion energy :  203.440043189634 Hartree


  Symmetry Orbitals
  -----------------

  Number of orbitals in each symmetry:           9    6    9    6    2    1    2    1


  Symmetry  Ag ( 1)

    1     H1       1s         1 +    2
    2     H2       1s         3 +    4 +    5 +    6
    3     C1       1s         7 +    8
    4     C1       1s         9 +   10
    5     C1       2py       13 -   14
    6     C2       1s        17 +   18 +   19 +   20
    7     C2       1s        21 +   22 +   23 +   24
    8     C2       2px       25 -   26 +   27 -   28
    9     C2       2py       29 +   30 -   31 -   32


  Symmetry  B3u( 2)

   10     H2       1s         3 -    4 +    5 -    6
   11     C1       2px       11 +   12
   12     C2       1s        17 -   18 +   19 -   20
   13     C2       1s        21 -   22 +   23 -   24
   14     C2       2px       25 +   26 +   27 +   28
   15     C2       2py       29 -   30 -   31 +   32


  Symmetry  B2u( 3)

   16     H1       1s         1 -    2
   17     H2       1s         3 +    4 -    5 -    6
   18     C1       1s         7 -    8
   19     C1       1s         9 -   10
   20     C1       2py       13 +   14
   21     C2       1s        17 +   18 -   19 -   20
   22     C2       1s        21 +   22 -   23 -   24
   23     C2       2px       25 -   26 -   27 +   28
   24     C2       2py       29 +   30 +   31 +   32


  Symmetry  B1g( 4)

   25     H2       1s         3 -    4 -    5 +    6
   26     C1       2px       11 -   12
   27     C2       1s        17 -   18 -   19 +   20
   28     C2       1s        21 -   22 -   23 +   24
   29     C2       2px       25 +   26 -   27 -   28
   30     C2       2py       29 -   30 +   31 -   32


  Symmetry  B1u( 5)

   31     C1       2pz       15 +   16
   32     C2       2pz       33 +   34 +   35 +   36


  Symmetry  B2g( 6)

   33     C2       2pz       33 -   34 +   35 -   36


  Symmetry  B3g( 7)

   34     C1       2pz       15 -   16
   35     C2       2pz       33 +   34 -   35 -   36


  Symmetry  Au ( 8)

   36     C2       2pz       33 -   34 -   35 +   36

  Symmetries of electric field:  B3u(2)  B2u(3)  B1u(5)

  Symmetries of magnetic field:  B3g(7)  B2g(6)  B1g(4)


                     .---------------------------------------.
                     | Starting in Integral Section (HERMIT) |
                     `---------------------------------------'



 ***************************************************************************************
 ****************** Output from **INTEGRALS input processing (HERMIT) ******************
 ***************************************************************************************


 - Using defaults, no **INTEGRALS input found

 Default print level:        1

 Calculation of one- and two-electron Hamiltonian integrals.

 Center of mass  (bohr):      0.000000000000      0.000000000000      0.000000000000
 Operator center (bohr):      0.000000000000      0.000000000000      0.000000000000
 Gauge origin    (bohr):      0.000000000000      0.000000000000      0.000000000000
 Dipole origin   (bohr):      0.000000000000      0.000000000000      0.000000000000

Calculation of 2-electron integrals are postponed until they are needed.


     ************************************************************************
     ************************** Output from HERINT **************************
     ************************************************************************



                      Nuclear contribution to dipole moments
                      --------------------------------------

                    All dipole components are zero by symmetry


  Total CPU  time used in HERMIT:   0.02 seconds
  Total wall time used in HERMIT:   0.02 seconds


                        .----------------------------------.
                        | End of Integral Section (HERMIT) |
                        `----------------------------------'



                   .--------------------------------------------.
                   | Starting in Wave Function Section (SIRIUS) |
                   `--------------------------------------------'


 *** Output from Huckel module :

     Using EWMO model:          F
     Using EHT  model:          T
     Number of Huckel orbitals each symmetry:    9    6    9    6    2    1    2    1

 Huckel EHT eigenvalues for symmetry :  1
          -11.414669     -11.377333      -1.569291      -0.876432      -0.787964
           -0.415502      -0.216718      -0.210993      -0.177718

 Huckel EHT eigenvalues for symmetry :  2
          -11.395430      -1.217445      -0.532382      -0.492150      -0.203374
           -0.167367

 Huckel EHT eigenvalues for symmetry :  3
          -11.395429     -11.362706      -1.217440      -0.626426      -0.532380
           -0.236917      -0.203375      -0.167367      -0.160958

 Huckel EHT eigenvalues for symmetry :  4
          -11.377333      -0.876431      -0.415503      -0.216717      -0.177718
           -0.164333

 Huckel EHT eigenvalues for symmetry :  5
           -0.705518      -0.289103

 Huckel EHT eigenvalues for symmetry :  6
           -0.459539

 Huckel EHT eigenvalues for symmetry :  7
           -0.459538      -0.238600

 Huckel EHT eigenvalues for symmetry :  8
           -0.289102

 **********************************************************************
 *SIRIUS* a direct, restricted step, second order MCSCF program       *
 **********************************************************************

 
     Date and time (Linux)  : Wed Aug  3 13:09:25 2022
     Host name              : adm-110765.pc.sdu.dk                    

 Title lines from ".mol" input file:
     1st order geometry optimization using MP2 frozen core                   
     numerical gradients                                                     

 Print level on unit LUPRI =   2 is   0
 Print level on unit LUW4  =   2 is   5

@    MP2, closed-shell Moeller-Plesset second-order calculation.

@    This is a combination run starting with
@              a restricted, closed shell Hartree-Fock calculation


 Initial molecular orbitals are obtained according to
 ".MOSTART EHT   " input option

     Wave function specification
     ============================
@    Wave function type        --- MP2 ---
@    Number of closed shell electrons          42
@    Number of electrons in active shells       0
@    Total charge of the molecule               0

@    Spin multiplicity and 2 M_S                1         0
@    Total number of symmetries                 8 (point group: D2h)
@    Reference state symmetry                   1 (irrep name : Ag )

     Orbital specifications
     ======================
@    Abelian symmetry species          All |    1    2    3    4    5    6    7    8
@                                          |  Ag   B3u  B2u  B1g  B1u  B2g  B3g  Au 
                                       --- |  ---  ---  ---  ---  ---  ---  ---  ---
@    Total number of orbitals           36 |    9    6    9    6    2    1    2    1
@    Number of basis functions          36 |    9    6    9    6    2    1    2    1

      ** Automatic occupation of RHF orbitals **

      -- Initial occupation of symmetries is determined from extended Huckel guess.           
      -- Initial occupation of symmetries is :
@    Occupied SCF orbitals              21 |    6    4    5    3    1    1    1    0

     Maximum number of Fock   iterations      0
     Maximum number of DIIS   iterations     60
     Maximum number of QC-SCF iterations     60
     Threshold for SCF convergence     1.00D-06


@    Number of frozen MP2 orbitals       6 |    2    1    2    1    0    0    0    0


 ***********************************************
 ***** DIIS acceleration of SCF iterations *****
 ***********************************************

 C1-DIIS algorithm; max error vectors =    8

 Automatic occupation of symmetries with  42 electrons.

 Iter     Total energy    Error norm  Delta(E)    SCF occupation
 -----------------------------------------------------------------------------

Calculating AOSUPINT

---> (Re)generating AOTWOINT


     ************************************************************************
     ************************** Output from HERINT **************************
     ************************************************************************


 Threshold for neglecting two-electron integrals:  1.00D-15
 HERMIT - Number of two-electron integrals written:       34187 ( 15.4% )
 HERMIT - Megabytes written:                              0.392

     (Precalculated AO two-electron integrals are transformed to P-supermatrix elements.
      Threshold for discarding integrals :  1.00D-15 )
@  1  -227.666809421       2.93D+00  -2.28D+02     6   4   5   3   1   1   1   0
      Virial theorem: -V/T =      2.002664
@    MULPOP   H1  _1 -0.16; H1  _2 -0.16; H2  _1 -0.16; H2  _2 -0.16; H2  _3 -0.16; H2  _4 -0.16; C1  _1  0.16; C1  _2  0.16; C2  _1  0.16; C2  _2  0.16; 
@             C2  _3  0.16; C2  _4  0.16; 
   1  Level shift: doubly occupied orbital energies shifted by -2.00D-01
 -----------------------------------------------------------------------------
@  2  -227.886516410       2.73D-01  -2.20D-01     6   4   5   3   1   1   1   0
      Virial theorem: -V/T =      2.008437
@    MULPOP   H1  _1  0.04; H1  _2  0.04; H2  _1  0.04; H2  _2  0.04; H2  _3  0.04; H2  _4  0.04; C1  _1 -0.04; C1  _2 -0.04; C2  _1 -0.04; C2  _2 -0.04; 
@             C2  _3 -0.04; C2  _4 -0.04; 
   2  Level shift: doubly occupied orbital energies shifted by -5.00D-02
 -----------------------------------------------------------------------------
@  3  -227.890751964       2.82D-02  -4.24D-03     6   4   5   3   1   1   1   0
      Virial theorem: -V/T =      2.008564
@    MULPOP   H1  _1  0.06; H1  _2  0.06; H2  _1  0.06; H2  _2  0.06; H2  _3  0.06; H2  _4  0.06; C1  _1 -0.06; C1  _2 -0.06; C2  _1 -0.06; C2  _2 -0.06; 
@             C2  _3 -0.06; C2  _4 -0.06; 
   3  Level shift: doubly occupied orbital energies shifted by -1.25D-02
 -----------------------------------------------------------------------------
@  4  -227.890842007       2.37D-03  -9.00D-05     6   4   5   3   1   1   1   0
      Virial theorem: -V/T =      2.008507
@    MULPOP   H1  _1  0.06; H1  _2  0.06; H2  _1  0.06; H2  _2  0.06; H2  _3  0.06; H2  _4  0.06; C1  _1 -0.06; C1  _2 -0.06; C2  _1 -0.06; C2  _2 -0.06; 
@             C2  _3 -0.06; C2  _4 -0.06; 
 -----------------------------------------------------------------------------
@  5  -227.890842680       2.23D-04  -6.72D-07     6   4   5   3   1   1   1   0
      Virial theorem: -V/T =      2.008505
@    MULPOP   H1  _1  0.06; H1  _2  0.06; H2  _1  0.06; H2  _2  0.06; H2  _3  0.06; H2  _4  0.06; C1  _1 -0.06; C1  _2 -0.06; C2  _1 -0.06; C2  _2 -0.06; 
@             C2  _3 -0.06; C2  _4 -0.06; 
 -----------------------------------------------------------------------------
@  6  -227.890842685       1.05D-05  -5.64D-09     6   4   5   3   1   1   1   0
      Virial theorem: -V/T =      2.008505
@    MULPOP   H1  _1  0.06; H1  _2  0.06; H2  _1  0.06; H2  _2  0.06; H2  _3  0.06; H2  _4  0.06; C1  _1 -0.06; C1  _2 -0.06; C2  _1 -0.06; C2  _2 -0.06; 
@             C2  _3 -0.06; C2  _4 -0.06; 
 -----------------------------------------------------------------------------
@  7  -227.890842685       2.84D-06  -9.49D-12     6   4   5   3   1   1   1   0
      Virial theorem: -V/T =      2.008505
@    MULPOP   H1  _1  0.06; H1  _2  0.06; H2  _1  0.06; H2  _2  0.06; H2  _3  0.06; H2  _4  0.06; C1  _1 -0.06; C1  _2 -0.06; C2  _1 -0.06; C2  _2 -0.06; 
@             C2  _3 -0.06; C2  _4 -0.06; 
 -----------------------------------------------------------------------------
@  8  -227.890842685       5.06D-07  -3.41D-13     6   4   5   3   1   1   1   0

@ *** DIIS converged in   8 iterations !
@     Converged SCF energy, gradient:   -227.890842685333    5.06D-07
    - total time used in SIRFCK :              0.00 seconds

 --- Writing SIRIFC interface file

--------------------------------------------------------------------------------


     .--------------------------------------------------.
     | HF-SCF KT IPs [a.u. & eV] from Koopmans' theorem |
     `--------------------------------------------------'


     HF-SCF KT symmetry 1 ( Ag ) in point group D2h -- 6 principal poles with pole strength 1

   ============  ============  ============  ============  ============
      11.029089     11.028758      1.089764      0.766719      0.661881
     300.116784    300.107764     29.653993     20.863475     18.010700
   ============  ============  ============  ============  ============

   ============
       0.432786
      11.776707
   ============

     HF-SCF KT symmetry 2 ( B3u) in point group D2h -- 4 principal poles with pole strength 1

   ============  ============  ============  ============
      11.029114      0.954547      0.553119      0.533925
     300.117462     25.974559     15.051139     14.528847
   ============  ============  ============  ============

     HF-SCF KT symmetry 3 ( B2u) in point group D2h -- 5 principal poles with pole strength 1

   ============  ============  ============  ============  ============
      11.029114     11.028613      0.954543      0.594277      0.533921
     300.117464    300.103822     25.974445     16.171086     14.528719
   ============  ============  ============  ============  ============

     HF-SCF KT symmetry 4 ( B1g) in point group D2h -- 3 principal poles with pole strength 1

   ============  ============  ============
      11.028758      0.766718      0.432788
     300.107762     20.863447     11.776770
   ============  ============  ============

     HF-SCF KT symmetry 5 ( B1u) in point group D2h -- 1 principal poles with pole strength 1

   ============
       0.456011
      12.408678
   ============

     HF-SCF KT symmetry 6 ( B2g) in point group D2h -- 1 principal poles with pole strength 1

   ============
       0.279776
       7.613080
   ============

     HF-SCF KT symmetry 7 ( B3g) in point group D2h -- 1 principal poles with pole strength 1

   ============
       0.279772
       7.612990
   ============

@ Summary of HF-SCF KT ionization potentials [eV]:

@ Symmetry 1 (Ag ) :   300.117     300.108      29.654      20.863      18.011
@                       11.777

@ Symmetry 2 (B3u) :   300.117      25.975      15.051      14.529

@ Symmetry 3 (B2u) :   300.117     300.104      25.974      16.171      14.529

@ Symmetry 4 (B1g) :   300.108      20.863      11.777

@ Symmetry 5 (B1u) :    12.409

@ Symmetry 6 (B2g) :     7.613

@ Symmetry 7 (B3g) :     7.613

@ Symmetry 8 (Au ) :  No IPs in this symmetry

  === End of HF-SCF KT output ===
--------------------------------------------------------------------------------


 CPU and wall time for SCF :       0.074       0.074


 ----- Output from SIRIUS MP2 module -----

 Reference: H.J.Aa.Jensen, P.Jørgensen, H.Ågren, and J.Olsen,
            J. Chem. Phys. 88, 3834 (1988); 89, 5354 (1988)

 Checking that the closed shell orbitals are canonical Hartree-Fock orbitals

    Number of electrons  :   42
    Closed shell orbitals:    6    4    5    3    1    1    1    0

 Generating Fock matrix

 Hartree-Fock electronic energy:        -431.330885874968
 Hartree-Fock total      energy:        -227.890842685333

 Hartree-Fock orbital energies, symmetry 1 ( Ag ),    6 occupied SCF orbitals

       -11.02908921   -11.02875774    -1.08976424    -0.76671863    -0.66188108
        -0.43278603     0.57878537     0.73410851     0.88411119

 Hartree-Fock orbital energies, symmetry 2 ( B3u),    4 occupied SCF orbitals

       -11.02911414    -0.95454749    -0.55311920    -0.53392533     0.64846787
         0.89654189

 Hartree-Fock orbital energies, symmetry 3 ( B2u),    5 occupied SCF orbitals

       -11.02911419   -11.02861287    -0.95454332    -0.59427650    -0.53392061
         0.64846270     0.72024237     0.89654569     1.14999949

 Hartree-Fock orbital energies, symmetry 4 ( B1g),    3 occupied SCF orbitals

       -11.02875765    -0.76671758    -0.43278835     0.73412047     0.88411778
         1.08645936

 Hartree-Fock orbital energies, symmetry 5 ( B1u),    1 occupied SCF orbitals

        -0.45601055     0.26867417

 Hartree-Fock orbital energies, symmetry 6 ( B2g),    1 occupied SCF orbitals

        -0.27977556

 Hartree-Fock orbital energies, symmetry 7 ( B3g),    1 occupied SCF orbitals

        -0.27977223     0.50351716

 Hartree-Fock orbital energies, symmetry 8 ( Au ),    0 occupied SCF orbitals

         0.26867620

    E(LUMO) :     0.26867417   (in symmetry 5)
  - E(HOMO) :    -0.27977223   (in symmetry 7)
  --------------------------
    gap     :     0.54844639

 2-el. integral transformation level 5: Total CPU and WALL times (sec)       0.010       0.010

 MP2 move   0.329154 electrons to unoccupied HF orbitals

@   * MP2 frozen orbitals per symmetry :    2    1    2    1    0    0    0    0

 * Total energy and NO's calculated with frozen orbitals.


@   Hartree-Fock total energy   :          -227.8908426853
@   + MP2 contribution          :            -0.3479441385
@   = MP2 second order energy   :          -228.2387868239

 MP2INFO for SOPPA (RHF orbitals) written to SIRIFC

 Natural orbital occupation numbers, symmetry 1 (irrep Ag )
 Sum =    11.98867516; RHF =    12.00000000; Difference =    -0.01132484

         2.00000000     2.00000000     1.99268634     1.98868613     1.98584229
         1.97919106     0.01831948     0.01212862     0.01182123

 Natural orbital occupation numbers, symmetry 2 (irrep B3u)
 Sum =     7.98224619; RHF =     8.00000000; Difference =    -0.01775381

         2.00000000     1.99084767     1.98349772     1.97834246     0.01761731
         0.01194103

 Natural orbital occupation numbers, symmetry 3 (irrep B2u)
 Sum =    10.01686094; RHF =    10.00000000; Difference =     0.01686094

         2.00000000     2.00000000     1.99084753     1.98684536     1.98349749
         0.01761726     0.01597539     0.01194119     0.01013671

 Natural orbital occupation numbers, symmetry 4 (irrep B1g)
 Sum =     6.01037895; RHF =     6.00000000; Difference =     0.01037895

         2.00000000     1.98868626     1.97919092     0.01831915     0.01236159
         0.01182103

 Natural orbital occupation numbers, symmetry 5 (irrep B1u)
 Sum =     2.03218966; RHF =     2.00000000; Difference =     0.03218966

         1.96834998     0.06383968

 Natural orbital occupation numbers, symmetry 6 (irrep B2g)
 Sum =     1.93731766; RHF =     2.00000000; Difference =    -0.06268234

         1.93731766

 Natural orbital occupation numbers, symmetry 7 (irrep B3g)
 Sum =     1.96849249; RHF =     2.00000000; Difference =    -0.03150751

         1.93731673     0.03117575

 Natural orbital occupation numbers, symmetry 8 (irrep Au )
 Sum =     0.06383896; RHF =     0.00000000; Difference =     0.06383896

         0.06383896

 MP2 move   0.329522 electrons to unoccupied HF orbitals

 Full MP2 energy and NO occupations obtained without frozen orbitals.

 NOTE that the orbitals saved on disk are those obtained with frozen orbitals (see above).

 Hartree-Fock total energy :          -227.8908426853
 + MP2 contribution        :            -0.3507671371
 = MP2 second order energy :          -228.2416098224

 Natural orbital occupation numbers, symmetry 1 (irrep Ag )
 Sum =    11.98863325; RHF =    12.00000000; Difference =    -0.01136675

         1.99996602     1.99995908     1.99267600     1.98867745     1.98583557
         1.97918060     0.01835979     0.01214228     0.01183647

 Natural orbital occupation numbers, symmetry 2 (irrep B3u)
 Sum =     7.98222136; RHF =     8.00000000; Difference =    -0.01777864

         1.99996154     1.99083765     1.98348811     1.97833285     0.01764481
         0.01195641

 Natural orbital occupation numbers, symmetry 3 (irrep B2u)
 Sum =    10.01686580; RHF =    10.00000000; Difference =     0.01686580

         1.99996794     1.99996154     1.99083751     1.98683611     1.98348788
         0.01764476     0.01602033     0.01195657     0.01015316

 Natural orbital occupation numbers, symmetry 4 (irrep B1g)
 Sum =     6.01040716; RHF =     6.00000000; Difference =     0.01040716

         1.99996602     1.98867758     1.97918046     0.01835945     0.01238737
         0.01183627

 Natural orbital occupation numbers, symmetry 5 (irrep B1u)
 Sum =     2.03220253; RHF =     2.00000000; Difference =     0.03220253

         1.96833873     0.06386380

 Natural orbital occupation numbers, symmetry 6 (irrep B2g)
 Sum =     1.93730393; RHF =     2.00000000; Difference =    -0.06269607

         1.93730393

 Natural orbital occupation numbers, symmetry 7 (irrep B3g)
 Sum =     1.96850290; RHF =     2.00000000; Difference =    -0.03149710

         1.93730300     0.03119990

 Natural orbital occupation numbers, symmetry 8 (irrep Au )
 Sum =     0.06386307; RHF =     0.00000000; Difference =     0.06386307

         0.06386307

 Time used for MP2 natural orbitals :       0.013 CPU seconds,       0.013 wall seconds.

 CPU and wall time for MP2 :       0.013       0.013


                       .-----------------------------------.
                       | --- Final results from SIRIUS --- |
                       `-----------------------------------'


@    Spin multiplicity:           1
@    Spatial symmetry:            1 ( irrep  Ag  in D2h )
@    Total charge of molecule:    0

@    Final HF energy:            -227.890842685333                 
@    Nuclear repulsion:           203.440043189634
@    Electronic energy:          -431.330885874968

@    Final gradient norm:           0.000000506348

 
     Date and time (Linux)  : Wed Aug  3 13:09:25 2022
     Host name              : adm-110765.pc.sdu.dk                    

File label for MO orbitals:   3Aug22   MP2SAVE 

 (Only coefficients > 0.0100 are printed.)

 Molecular orbitals for symmetry species 1  (Ag )
 ------------------------------------------------

    Orbital         1        2        3        4        5        6        7
   1 H1  :1s    -0.0028  -0.0040   0.0741  -0.2887   0.1639  -0.1951  -0.1311
   2 H2  :1s    -0.0028   0.0020   0.0742   0.1443   0.1639   0.0975   0.0656
   3 C1  :1s     0.4055   0.5726  -0.1047   0.1003   0.0070  -0.0561  -0.1550
   4 C1  :1s     0.0092   0.0249   0.2668  -0.2993  -0.0031   0.1598   1.0142
   5 C1  :2py    0.0015  -0.0019  -0.0258  -0.1956   0.2426  -0.2156  -0.4384
   6 C2  :1s     0.4054  -0.2863  -0.1047  -0.0501   0.0070   0.0280   0.0775
   7 C2  :1s     0.0092  -0.0125   0.2668   0.1496  -0.0031  -0.0799  -0.5071
   8 C2  :2px    0.0013   0.0025  -0.0223   0.1126   0.2101  -0.0804   0.4004
   9 C2  :2py    0.0008  -0.0024  -0.0129   0.0007   0.1213   0.3548  -0.2552

    Orbital         8        9
   1 H1  :1s     0.5123   0.7139
   2 H2  :1s     0.5118  -0.3573
   3 C1  :1s     0.0529   0.0565
   4 C1  :1s    -0.3346  -0.3465
   5 C1  :2py   -0.3148  -0.6821
   6 C2  :1s     0.0528  -0.0283
   7 C2  :1s    -0.3343   0.1735
   8 C2  :2px   -0.2722   0.2875
   9 C2  :2py   -0.1571   0.1847

 Molecular orbitals for symmetry species 2  (B3u)
 ------------------------------------------------

    Orbital         1        2        3        4        5        6
   1 H2  :1s    -0.0033   0.1583   0.2087  -0.0000  -0.1118   0.6155
   2 C1  :2px   -0.0038   0.0960  -0.1293   0.3321   0.8706   0.2201
   3 C2  :1s     0.4963  -0.1156   0.0576  -0.0000   0.0521   0.0692
   4 C2  :1s     0.0146   0.3093  -0.1669   0.0000  -0.3851  -0.4829
   5 C2  :2px   -0.0005   0.0808   0.2405  -0.1661   0.4121  -0.3163
   6 C2  :2py    0.0019  -0.0088   0.2135   0.2876  -0.2647  -0.3097

 Molecular orbitals for symmetry species 3  (B2u)
 ------------------------------------------------

    Orbital         1        2        3        4        5        6        7
   1 H1  :1s    -0.0038   0.0029   0.1828  -0.2313   0.2410  -0.1291   0.2439
   2 H2  :1s    -0.0019  -0.0029   0.0914   0.2313   0.1205  -0.0646  -0.2438
   3 C1  :1s     0.5731  -0.4047  -0.1335   0.0659   0.0665   0.0602   0.1343
   4 C1  :1s     0.0168  -0.0209   0.3572  -0.2230  -0.1927  -0.4448  -0.8836
   5 C1  :2py    0.0005   0.0025   0.0757  -0.1619   0.3637   0.2593   0.2914
   6 C2  :1s     0.2865   0.4048  -0.0667  -0.0659   0.0332   0.0301  -0.1343
   7 C2  :1s     0.0084   0.0209   0.1786   0.2230  -0.0964  -0.2223   0.8836
   8 C2  :2px    0.0019  -0.0021  -0.0088   0.1403   0.2135  -0.2648  -0.2524
   9 C2  :2py   -0.0027  -0.0012   0.0909   0.0810  -0.0060   0.7178  -0.1458

    Orbital         8        9
   1 H1  :1s     0.7107   0.4690
   2 H2  :1s     0.3553  -0.4691
   3 C1  :1s     0.0799   0.0091
   4 C1  :1s    -0.5576   0.0111
   5 C1  :2py   -0.4952  -0.6120
   6 C2  :1s     0.0399  -0.0091
   7 C2  :1s    -0.2789  -0.0110
   8 C2  :2px   -0.3097   0.5300
   9 C2  :2py    0.0414   0.3060

 Molecular orbitals for symmetry species 4  (B1g)
 ------------------------------------------------

    Orbital         1        2        3        4        5        6
   1 H2  :1s    -0.0034   0.2500   0.1689   0.1136  -0.0001  -0.6184
   2 C1  :2px   -0.0039   0.0643  -0.4012   0.4864  -0.7564  -0.0186
   3 C2  :1s     0.4959  -0.0868   0.0486   0.1342  -0.0000  -0.0490
   4 C2  :1s     0.0216   0.2592  -0.1384  -0.8783   0.0000   0.3003
   5 C2  :2px   -0.0005   0.1306   0.2620   0.2072  -0.3781   0.5164
   6 C2  :2py   -0.0025   0.1125  -0.0804   0.4004   0.6551   0.2873

 Molecular orbitals for symmetry species 5  (B1u)
 ------------------------------------------------

    Orbital         1        2
   1 C1  :2pz    0.3343   0.6581
   2 C2  :2pz    0.3343  -0.3291

 Molecular orbitals for symmetry species 6  (B2g)
 ------------------------------------------------

    Orbital         1
   1 C2  :2pz    0.4605

 Molecular orbitals for symmetry species 7  (B3g)
 ------------------------------------------------

    Orbital         1        2
   1 C1  :2pz    0.5317  -0.5222
   2 C2  :2pz    0.2658   0.5222

 Molecular orbitals for symmetry species 8  (Au )
 ------------------------------------------------

    Orbital         1
   1 C2  :2pz    0.5700

  Total CPU  time used in SIRIUS :   0.09 seconds
  Total wall time used in SIRIUS :   0.09 seconds

 
     Date and time (Linux)  : Wed Aug  3 13:09:25 2022
     Host name              : adm-110765.pc.sdu.dk                    


                     .---------------------------------------.
                     | End of Wave Function Section (SIRIUS) |
                     `---------------------------------------'


     Order of analytical energy-derivatives available:   0
     Calculating gradient numerically.

 INFO: Due to limitations in the accuracy of the numerical gradients
 INFO: default thresholds for convergence of geometry optimization have been reset.

 New thresholds:

                    Gradient norm   0.00010000
                    Step norm       0.00010000
                    Energy change   0.00010000


          **************************************************************
          ****************** @ Numerical derivatives. ******************
          **************************************************************



 @ Derivatives calculated:
 -------------------------

@          Derivatives calculated to order  1
@          Analytical derivatives from energies to   0 order.
@          1. numerical derivatives from  0. order analytical derivatives


                       Making symmetry adapted coor in D2h
                       -----------------------------------



                     Group matrix elements for the group D2h
                     ---------------------------------------

 1. irep:
  1.00  1.00  1.00  1.00  1.00  1.00  1.00  1.00
 2. irep:
  1.00 -1.00  1.00 -1.00  1.00 -1.00  1.00 -1.00
 3. irep:
  1.00  1.00 -1.00 -1.00  1.00  1.00 -1.00 -1.00
 4. irep:
  1.00 -1.00 -1.00  1.00  1.00 -1.00 -1.00  1.00
 5. irep:
  1.00  1.00  1.00  1.00 -1.00 -1.00 -1.00 -1.00
 6. irep:
  1.00 -1.00  1.00 -1.00 -1.00  1.00 -1.00  1.00
 7. irep:
  1.00  1.00 -1.00 -1.00 -1.00 -1.00  1.00  1.00
 8. irep:
  1.00 -1.00 -1.00  1.00 -1.00  1.00  1.00 -1.00
                                      


 Characters for the group D2h
 ----------------------------

 1. irep:
  1.0  1.0  1.0  1.0  1.0  1.0  1.0  1.0
 2. irep:
  1.0 -1.0  1.0 -1.0  1.0 -1.0  1.0 -1.0
 3. irep:
  1.0  1.0 -1.0 -1.0  1.0  1.0 -1.0 -1.0
 4. irep:
  1.0 -1.0 -1.0  1.0  1.0 -1.0 -1.0  1.0
 5. irep:
  1.0  1.0  1.0  1.0 -1.0 -1.0 -1.0 -1.0
 6. irep:
  1.0 -1.0  1.0 -1.0 -1.0  1.0 -1.0  1.0
 7. irep:
  1.0  1.0 -1.0 -1.0 -1.0 -1.0  1.0  1.0
 8. irep:
  1.0 -1.0 -1.0  1.0 -1.0  1.0  1.0 -1.0
                                      


                               Symmetry coordinates
                               --------------------

Symmetry   1       1       1       1       1       1       2       2       2       2
        0.0000  0.0000  0.0000  0.0000  0.0000  0.0000  0.7071  0.0000  0.0000  0.0000
        0.7071  0.0000  0.0000  0.0000  0.0000  0.0000 -0.0000  0.0000  0.0000  0.0000
        0.0000  0.0000  0.0000  0.0000  0.0000  0.0000  0.0000  0.0000  0.0000  0.0000
        0.0000  0.0000  0.0000  0.0000  0.0000  0.0000  0.7071  0.0000  0.0000  0.0000
       -0.7071  0.0000  0.0000  0.0000  0.0000  0.0000  0.0000  0.0000  0.0000  0.0000
        0.0000  0.0000  0.0000  0.0000  0.0000  0.0000  0.0000  0.0000  0.0000  0.0000
        0.0000  0.5000  0.0000  0.0000  0.0000  0.0000  0.0000  0.5000  0.0000  0.0000
        0.0000  0.0000  0.5000  0.0000  0.0000  0.0000  0.0000  0.0000  0.5000  0.0000
        0.0000  0.0000  0.0000  0.0000  0.0000  0.0000  0.0000  0.0000  0.0000  0.0000
        0.0000 -0.5000  0.0000  0.0000  0.0000  0.0000  0.0000  0.5000 -0.0000  0.0000
        0.0000  0.0000  0.5000  0.0000  0.0000  0.0000  0.0000 -0.0000 -0.5000  0.0000
        0.0000  0.0000  0.0000  0.0000  0.0000  0.0000  0.0000  0.0000  0.0000  0.0000
        0.0000  0.5000  0.0000  0.0000  0.0000  0.0000  0.0000  0.5000  0.0000  0.0000
        0.0000  0.0000 -0.5000  0.0000  0.0000  0.0000  0.0000  0.0000 -0.5000  0.0000
        0.0000  0.0000  0.0000  0.0000  0.0000  0.0000  0.0000  0.0000  0.0000  0.0000
        0.0000 -0.5000  0.0000  0.0000  0.0000  0.0000  0.0000  0.5000 -0.0000  0.0000
        0.0000 -0.0000 -0.5000  0.0000  0.0000  0.0000  0.0000  0.0000  0.5000  0.0000
        0.0000  0.0000  0.0000  0.0000  0.0000  0.0000  0.0000  0.0000  0.0000  0.0000
        0.0000  0.0000  0.0000  0.0000  0.0000  0.0000  0.0000  0.0000  0.0000  0.7071
        0.0000  0.0000  0.0000  0.7071  0.0000  0.0000  0.0000  0.0000  0.0000 -0.0000
        0.0000  0.0000  0.0000  0.0000  0.0000  0.0000  0.0000  0.0000  0.0000  0.0000
        0.0000  0.0000  0.0000  0.0000  0.0000  0.0000  0.0000  0.0000  0.0000  0.7071
        0.0000  0.0000  0.0000 -0.7071  0.0000  0.0000  0.0000  0.0000  0.0000  0.0000
        0.0000  0.0000  0.0000  0.0000  0.0000  0.0000  0.0000  0.0000  0.0000  0.0000
        0.0000  0.0000  0.0000  0.0000  0.5000  0.0000  0.0000  0.0000  0.0000  0.0000
        0.0000  0.0000  0.0000  0.0000  0.0000  0.5000  0.0000  0.0000  0.0000  0.0000
        0.0000  0.0000  0.0000  0.0000  0.0000  0.0000  0.0000  0.0000  0.0000  0.0000
        0.0000  0.0000  0.0000  0.0000 -0.5000  0.0000  0.0000  0.0000  0.0000  0.0000
        0.0000  0.0000  0.0000  0.0000  0.0000  0.5000  0.0000  0.0000  0.0000  0.0000
        0.0000  0.0000  0.0000  0.0000  0.0000  0.0000  0.0000  0.0000  0.0000  0.0000
        0.0000  0.0000  0.0000  0.0000  0.5000  0.0000  0.0000  0.0000  0.0000  0.0000
        0.0000  0.0000  0.0000  0.0000  0.0000 -0.5000  0.0000  0.0000  0.0000  0.0000
        0.0000  0.0000  0.0000  0.0000  0.0000  0.0000  0.0000  0.0000  0.0000  0.0000
        0.0000  0.0000  0.0000  0.0000 -0.5000  0.0000  0.0000  0.0000  0.0000  0.0000
        0.0000  0.0000  0.0000  0.0000 -0.0000 -0.5000  0.0000  0.0000  0.0000  0.0000
        0.0000  0.0000  0.0000  0.0000  0.0000  0.0000  0.0000  0.0000  0.0000  0.0000


Symmetry   2       2       3       3       3       3       3       3       4       4
        0.0000  0.0000  0.7071  0.0000  0.0000  0.0000  0.0000  0.0000  0.0000  0.0000
        0.0000  0.0000 -0.0000  0.0000  0.0000  0.0000  0.0000  0.0000  0.7071  0.0000
        0.0000  0.0000  0.0000  0.0000  0.0000  0.0000  0.0000  0.0000  0.0000  0.0000
        0.0000  0.0000 -0.7071  0.0000  0.0000  0.0000  0.0000  0.0000 -0.0000  0.0000
        0.0000  0.0000 -0.0000  0.0000  0.0000  0.0000  0.0000  0.0000  0.7071  0.0000
        0.0000  0.0000  0.0000  0.0000  0.0000  0.0000  0.0000  0.0000  0.0000  0.0000
        0.0000  0.0000  0.0000  0.5000  0.0000  0.0000  0.0000  0.0000  0.0000  0.5000
        0.0000  0.0000  0.0000  0.0000  0.5000  0.0000  0.0000  0.0000  0.0000  0.0000
        0.0000  0.0000  0.0000  0.0000  0.0000  0.0000  0.0000  0.0000  0.0000  0.0000
        0.0000  0.0000  0.0000  0.5000 -0.0000  0.0000  0.0000  0.0000  0.0000 -0.5000
        0.0000  0.0000  0.0000 -0.0000 -0.5000  0.0000  0.0000  0.0000  0.0000  0.0000
        0.0000  0.0000  0.0000  0.0000  0.0000  0.0000  0.0000  0.0000  0.0000  0.0000
        0.0000  0.0000  0.0000 -0.5000  0.0000  0.0000  0.0000  0.0000  0.0000 -0.5000
        0.0000  0.0000  0.0000  0.0000  0.5000  0.0000  0.0000  0.0000  0.0000  0.0000
        0.0000  0.0000  0.0000  0.0000  0.0000  0.0000  0.0000  0.0000  0.0000  0.0000
        0.0000  0.0000  0.0000 -0.5000  0.0000  0.0000  0.0000  0.0000  0.0000  0.5000
        0.0000  0.0000  0.0000 -0.0000 -0.5000  0.0000  0.0000  0.0000  0.0000  0.0000
        0.0000  0.0000  0.0000  0.0000  0.0000  0.0000  0.0000  0.0000  0.0000  0.0000
        0.0000  0.0000  0.0000  0.0000  0.0000  0.7071  0.0000  0.0000  0.0000  0.0000
        0.0000  0.0000  0.0000  0.0000  0.0000 -0.0000  0.0000  0.0000  0.0000  0.0000
        0.0000  0.0000  0.0000  0.0000  0.0000  0.0000  0.0000  0.0000  0.0000  0.0000
        0.0000  0.0000  0.0000  0.0000  0.0000 -0.7071  0.0000  0.0000  0.0000  0.0000
        0.0000  0.0000  0.0000  0.0000  0.0000 -0.0000  0.0000  0.0000  0.0000  0.0000
        0.0000  0.0000  0.0000  0.0000  0.0000  0.0000  0.0000  0.0000  0.0000  0.0000
        0.5000  0.0000  0.0000  0.0000  0.0000  0.0000  0.5000  0.0000  0.0000  0.0000
        0.0000  0.5000  0.0000  0.0000  0.0000  0.0000  0.0000  0.5000  0.0000  0.0000
        0.0000  0.0000  0.0000  0.0000  0.0000  0.0000  0.0000  0.0000  0.0000  0.0000
        0.5000 -0.0000  0.0000  0.0000  0.0000  0.0000  0.5000 -0.0000  0.0000  0.0000
       -0.0000 -0.5000  0.0000  0.0000  0.0000  0.0000 -0.0000 -0.5000  0.0000  0.0000
        0.0000  0.0000  0.0000  0.0000  0.0000  0.0000  0.0000  0.0000  0.0000  0.0000
        0.5000  0.0000  0.0000  0.0000  0.0000  0.0000 -0.5000  0.0000  0.0000  0.0000
        0.0000 -0.5000  0.0000  0.0000  0.0000  0.0000  0.0000  0.5000  0.0000  0.0000
        0.0000  0.0000  0.0000  0.0000  0.0000  0.0000  0.0000  0.0000  0.0000  0.0000
        0.5000 -0.0000  0.0000  0.0000  0.0000  0.0000 -0.5000  0.0000  0.0000  0.0000
        0.0000  0.5000  0.0000  0.0000  0.0000  0.0000 -0.0000 -0.5000  0.0000  0.0000
        0.0000  0.0000  0.0000  0.0000  0.0000  0.0000  0.0000  0.0000  0.0000  0.0000


Symmetry   4       4       4       4       5       5       6       6       6       6
        0.0000  0.0000  0.0000  0.0000  0.0000  0.0000  0.0000  0.0000  0.0000  0.0000
        0.0000  0.0000  0.0000  0.0000  0.0000  0.0000  0.0000  0.0000  0.0000  0.0000
        0.0000  0.0000  0.0000  0.0000  0.0000  0.0000  0.7071  0.0000  0.0000  0.0000
        0.0000  0.0000  0.0000  0.0000  0.0000  0.0000  0.0000  0.0000  0.0000  0.0000
        0.0000  0.0000  0.0000  0.0000  0.0000  0.0000  0.0000  0.0000  0.0000  0.0000
        0.0000  0.0000  0.0000  0.0000  0.0000  0.0000 -0.7071  0.0000  0.0000  0.0000
        0.0000  0.0000  0.0000  0.0000  0.0000  0.0000  0.0000  0.0000  0.0000  0.0000
        0.5000  0.0000  0.0000  0.0000  0.0000  0.0000  0.0000  0.0000  0.0000  0.0000
        0.0000  0.0000  0.0000  0.0000  0.5000  0.0000  0.0000  0.5000  0.0000  0.0000
        0.0000  0.0000  0.0000  0.0000  0.0000  0.0000  0.0000  0.0000  0.0000  0.0000
        0.5000  0.0000  0.0000  0.0000  0.0000  0.0000  0.0000  0.0000  0.0000  0.0000
        0.0000  0.0000  0.0000  0.0000 -0.5000  0.0000  0.0000  0.5000  0.0000  0.0000
        0.0000  0.0000  0.0000  0.0000  0.0000  0.0000  0.0000  0.0000  0.0000  0.0000
        0.5000  0.0000  0.0000  0.0000  0.0000  0.0000  0.0000  0.0000  0.0000  0.0000
        0.0000  0.0000  0.0000  0.0000 -0.5000  0.0000  0.0000 -0.5000  0.0000  0.0000
       -0.0000  0.0000  0.0000  0.0000  0.0000  0.0000  0.0000  0.0000  0.0000  0.0000
        0.5000  0.0000  0.0000  0.0000  0.0000  0.0000  0.0000  0.0000  0.0000  0.0000
        0.0000  0.0000  0.0000  0.0000  0.5000  0.0000  0.0000 -0.5000  0.0000  0.0000
        0.0000  0.0000  0.0000  0.0000  0.0000  0.0000  0.0000  0.0000  0.0000  0.0000
        0.0000  0.7071  0.0000  0.0000  0.0000  0.0000  0.0000  0.0000  0.0000  0.0000
        0.0000  0.0000  0.0000  0.0000  0.0000  0.0000  0.0000  0.0000  0.7071  0.0000
        0.0000 -0.0000  0.0000  0.0000  0.0000  0.0000  0.0000  0.0000  0.0000  0.0000
        0.0000  0.7071  0.0000  0.0000  0.0000  0.0000  0.0000  0.0000  0.0000  0.0000
        0.0000  0.0000  0.0000  0.0000  0.0000  0.0000  0.0000  0.0000 -0.7071  0.0000
        0.0000  0.0000  0.5000  0.0000  0.0000  0.0000  0.0000  0.0000  0.0000  0.0000
        0.0000  0.0000  0.0000  0.5000  0.0000  0.0000  0.0000  0.0000  0.0000  0.0000
        0.0000  0.0000  0.0000  0.0000  0.0000  0.5000  0.0000  0.0000  0.0000  0.5000
        0.0000  0.0000 -0.5000  0.0000  0.0000  0.0000  0.0000  0.0000  0.0000  0.0000
        0.0000  0.0000  0.0000  0.5000  0.0000  0.0000  0.0000  0.0000  0.0000  0.0000
        0.0000  0.0000  0.0000  0.0000  0.0000 -0.5000  0.0000  0.0000  0.0000  0.5000
        0.0000  0.0000 -0.5000  0.0000  0.0000  0.0000  0.0000  0.0000  0.0000  0.0000
        0.0000  0.0000  0.0000  0.5000  0.0000  0.0000  0.0000  0.0000  0.0000  0.0000
        0.0000  0.0000  0.0000  0.0000  0.0000 -0.5000  0.0000  0.0000  0.0000 -0.5000
        0.0000  0.0000  0.5000 -0.0000  0.0000  0.0000  0.0000  0.0000  0.0000  0.0000
        0.0000  0.0000  0.0000  0.5000  0.0000  0.0000  0.0000  0.0000  0.0000  0.0000
        0.0000  0.0000  0.0000  0.0000  0.0000  0.5000  0.0000  0.0000  0.0000 -0.5000


Symmetry   7       7       7       7       8       8
        0.0000  0.0000  0.0000  0.0000  0.0000  0.0000
        0.0000  0.0000  0.0000  0.0000  0.0000  0.0000
        0.7071  0.0000  0.0000  0.0000  0.0000  0.0000
        0.0000  0.0000  0.0000  0.0000  0.0000  0.0000
        0.0000  0.0000  0.0000  0.0000  0.0000  0.0000
        0.7071  0.0000  0.0000  0.0000  0.0000  0.0000
        0.0000  0.0000  0.0000  0.0000  0.0000  0.0000
        0.0000  0.0000  0.0000  0.0000  0.0000  0.0000
        0.0000  0.5000  0.0000  0.0000  0.5000  0.0000
        0.0000  0.0000  0.0000  0.0000  0.0000  0.0000
        0.0000  0.0000  0.0000  0.0000  0.0000  0.0000
        0.0000  0.5000  0.0000  0.0000 -0.5000  0.0000
        0.0000  0.0000  0.0000  0.0000  0.0000  0.0000
        0.0000  0.0000  0.0000  0.0000  0.0000  0.0000
        0.0000  0.5000  0.0000  0.0000  0.5000  0.0000
        0.0000  0.0000  0.0000  0.0000  0.0000  0.0000
        0.0000  0.0000  0.0000  0.0000  0.0000  0.0000
        0.0000  0.5000  0.0000  0.0000 -0.5000  0.0000
        0.0000  0.0000  0.0000  0.0000  0.0000  0.0000
        0.0000  0.0000  0.0000  0.0000  0.0000  0.0000
        0.0000  0.0000  0.7071  0.0000  0.0000  0.0000
        0.0000  0.0000  0.0000  0.0000  0.0000  0.0000
        0.0000  0.0000  0.0000  0.0000  0.0000  0.0000
        0.0000  0.0000  0.7071  0.0000  0.0000  0.0000
        0.0000  0.0000  0.0000  0.0000  0.0000  0.0000
        0.0000  0.0000  0.0000  0.0000  0.0000  0.0000
        0.0000  0.0000  0.0000  0.5000  0.0000  0.5000
        0.0000  0.0000  0.0000  0.0000  0.0000  0.0000
        0.0000  0.0000  0.0000  0.0000  0.0000  0.0000
        0.0000  0.0000  0.0000  0.5000  0.0000 -0.5000
        0.0000  0.0000  0.0000  0.0000  0.0000  0.0000
        0.0000  0.0000  0.0000  0.0000  0.0000  0.0000
        0.0000  0.0000  0.0000  0.5000  0.0000  0.5000
        0.0000  0.0000  0.0000  0.0000  0.0000  0.0000
        0.0000  0.0000  0.0000  0.0000  0.0000  0.0000
        0.0000  0.0000  0.0000  0.5000  0.0000 -0.5000





 @ Next numerical derivative component
 -------------------------------------

@        1


 **************************************************************************************
 ****************** Output of molecule and basis set info suppressed ******************
 **************************************************************************************



                      SYMADD: Requested addition of symmetry
                      --------------------------------------

 Symmetry test threshold:  5.00E-06

 Symmetry class found: D(2h)          

 The following symmetry elements were found:   X  Y  Z  


                     .---------------------------------------.
                     | Starting in Integral Section (HERMIT) |
                     `---------------------------------------'



                      Nuclear contribution to dipole moments
                      --------------------------------------

                    All dipole components are zero by symmetry


  Total CPU  time used in HERMIT:   0.01 seconds
  Total wall time used in HERMIT:   0.01 seconds


                        .----------------------------------.
                        | End of Integral Section (HERMIT) |
                        `----------------------------------'



                   .--------------------------------------------.
                   | Starting in Wave Function Section (SIRIUS) |
                   `--------------------------------------------'

* Read MO coefficients from SIRIUS.RST with label "NEWORB  " and header info:  3Aug22  MP2SAVE 

 **********************************************************************
 *SIRIUS* a direct, restricted step, second order MCSCF program       *
 **********************************************************************

 (Wave function specification suppressed here, see output above for initial geometry.)

 INFO: Changed THRP threshold used in integral transformation from  1.00D-15 to integral evaluation threshold  1.00D-12


 ***********************************************
 ***** DIIS acceleration of SCF iterations *****
 ***********************************************

 C1-DIIS algorithm; max error vectors =    8

 Iter      Total energy        Error norm    Delta(E)  DIIS dim.
 -----------------------------------------------------------------------------

Calculating AOSUPINT

---> (Re)generating AOTWOINT

 Threshold for neglecting two-electron integrals:  1.00D-12
 HERMIT - Number of two-electron integrals written:       34187 ( 15.4% )
 HERMIT - Megabytes written:                              0.392

     (Precalculated AO two-electron integrals are transformed to P-supermatrix elements.
      Threshold for discarding integrals :  1.00D-15 )
@  1    -227.890446462        5.63775D-02    3.96D-04    1
      Virial theorem: -V/T =      2.008426
@    MULPOP   H1  _1  0.06; H1  _2  0.06; H2  _1  0.06; H2  _2  0.06; H2  _3  0.06; H2  _4  0.06; C1  _1 -0.06; C1  _2 -0.06; C2  _1 -0.06; C2  _2 -0.06; 
@             C2  _3 -0.06; C2  _4 -0.06; 
 -----------------------------------------------------------------------------
@  2    -227.890776027        1.09461D-02   -3.30D-04    2
      Virial theorem: -V/T =      2.008519
@    MULPOP   H1  _1  0.06; H1  _2  0.06; H2  _1  0.06; H2  _2  0.06; H2  _3  0.06; H2  _4  0.06; C1  _1 -0.06; C1  _2 -0.06; C2  _1 -0.06; C2  _2 -0.06; 
@             C2  _3 -0.06; C2  _4 -0.06; 
 -----------------------------------------------------------------------------
@  3    -227.890788888        7.42902D-04   -1.29D-05    3
      Virial theorem: -V/T =      2.008526
@    MULPOP   H1  _1  0.06; H1  _2  0.06; H2  _1  0.06; H2  _2  0.06; H2  _3  0.06; H2  _4  0.06; C1  _1 -0.06; C1  _2 -0.06; C2  _1 -0.06; C2  _2 -0.06; 
@             C2  _3 -0.06; C2  _4 -0.06; 
 -----------------------------------------------------------------------------
@  4    -227.890788938        1.77249D-04   -4.98D-08    4
      Virial theorem: -V/T =      2.008529
@    MULPOP   H1  _1  0.06; H1  _2  0.06; H2  _1  0.06; H2  _2  0.06; H2  _3  0.06; H2  _4  0.06; C1  _1 -0.06; C1  _2 -0.06; C2  _1 -0.06; C2  _2 -0.06; 
@             C2  _3 -0.06; C2  _4 -0.06; 
 -----------------------------------------------------------------------------
@  5    -227.890788940        3.97701D-05   -2.31D-09    5
      Virial theorem: -V/T =      2.008529
@    MULPOP   H1  _1  0.06; H1  _2  0.06; H2  _1  0.06; H2  _2  0.06; H2  _3  0.06; H2  _4  0.06; C1  _1 -0.06; C1  _2 -0.06; C2  _1 -0.06; C2  _2 -0.06; 
@             C2  _3 -0.06; C2  _4 -0.06; 
 -----------------------------------------------------------------------------
@  6    -227.890788941        4.13499D-06   -1.47D-10    6
      Virial theorem: -V/T =      2.008529
@    MULPOP   H1  _1  0.06; H1  _2  0.06; H2  _1  0.06; H2  _2  0.06; H2  _3  0.06; H2  _4  0.06; C1  _1 -0.06; C1  _2 -0.06; C2  _1 -0.06; C2  _2 -0.06; 
@             C2  _3 -0.06; C2  _4 -0.06; 
 -----------------------------------------------------------------------------
@  7    -227.890788941        1.13019D-06   -2.33D-12    7
      Virial theorem: -V/T =      2.008529
@    MULPOP   H1  _1  0.06; H1  _2  0.06; H2  _1  0.06; H2  _2  0.06; H2  _3  0.06; H2  _4  0.06; C1  _1 -0.06; C1  _2 -0.06; C2  _1 -0.06; C2  _2 -0.06; 
@             C2  _3 -0.06; C2  _4 -0.06; 
 -----------------------------------------------------------------------------
@  8    -227.890788941        3.56232D-07   -1.71D-13    8

@ *** DIIS converged in   8 iterations !
@     Converged SCF energy, gradient:   -227.890788940561    3.56D-07
    - total time used in SIRFCK :              0.00 seconds

 --- Writing SIRIFC interface file

--------------------------------------------------------------------------------


     .--------------------------------------------------.
     | HF-SCF KT IPs [a.u. & eV] from Koopmans' theorem |
     `--------------------------------------------------'


     HF-SCF KT symmetry 1 ( Ag ) in point group D2h -- 6 principal poles with pole strength 1

   ============  ============  ============  ============  ============
      11.029109     11.028797      1.089706      0.766141      0.661484
     300.117325    300.108820     29.652405     20.847768     17.999885
   ============  ============  ============  ============  ============

   ============
       0.432329
      11.764268
   ============

     HF-SCF KT symmetry 2 ( B3u) in point group D2h -- 4 principal poles with pole strength 1

   ============  ============  ============  ============
      11.029094      0.954539      0.553058      0.533926
     300.116917     25.974318     15.049467     14.528858
   ============  ============  ============  ============

     HF-SCF KT symmetry 3 ( B2u) in point group D2h -- 5 principal poles with pole strength 1

   ============  ============  ============  ============  ============
      11.029164     11.028622      0.954212      0.593710      0.533314
     300.118822    300.104065     25.965442     16.155672     14.512219
   ============  ============  ============  ============  ============

     HF-SCF KT symmetry 4 ( B1g) in point group D2h -- 3 principal poles with pole strength 1

   ============  ============  ============
      11.028738      0.766679      0.432755
     300.107218     20.862407     11.775859
   ============  ============  ============

     HF-SCF KT symmetry 5 ( B1u) in point group D2h -- 1 principal poles with pole strength 1

   ============
       0.455984
      12.407955
   ============

     HF-SCF KT symmetry 6 ( B2g) in point group D2h -- 1 principal poles with pole strength 1

   ============
       0.279794
       7.613580
   ============

     HF-SCF KT symmetry 7 ( B3g) in point group D2h -- 1 principal poles with pole strength 1

   ============
       0.279681
       7.610509
   ============

@ Summary of HF-SCF KT ionization potentials [eV]:

@ Symmetry 1 (Ag ) :   300.117     300.109      29.652      20.848      18.000
@                       11.764

@ Symmetry 2 (B3u) :   300.117      25.974      15.049      14.529

@ Symmetry 3 (B2u) :   300.119     300.104      25.965      16.156      14.512

@ Symmetry 4 (B1g) :   300.107      20.862      11.776

@ Symmetry 5 (B1u) :    12.408

@ Symmetry 6 (B2g) :     7.614

@ Symmetry 7 (B3g) :     7.611

@ Symmetry 8 (Au ) :  No IPs in this symmetry

  === End of HF-SCF KT output ===
--------------------------------------------------------------------------------


 CPU and wall time for SCF :       0.072       0.072


 ----- Output from SIRIUS MP2 module -----

 Reference: H.J.Aa.Jensen, P.Jørgensen, H.Ågren, and J.Olsen,
            J. Chem. Phys. 88, 3834 (1988); 89, 5354 (1988)

 Checking that the closed shell orbitals are canonical Hartree-Fock orbitals

    Number of electrons  :   42
    Closed shell orbitals:    6    4    5    3    1    1    1    0

 Generating Fock matrix

 Hartree-Fock electronic energy:        -431.295646626391
 Hartree-Fock total      energy:        -227.890788940561

 Hartree-Fock orbital energies, symmetry 1 ( Ag ),    6 occupied SCF orbitals

       -11.02910909   -11.02879654    -1.08970588    -0.76614140    -0.66148361
        -0.43232891     0.57756260     0.73274764     0.88247555

 Hartree-Fock orbital energies, symmetry 2 ( B3u),    4 occupied SCF orbitals

       -11.02909408    -0.95453866    -0.55305776    -0.53392572     0.64849914
         0.89668634

 Hartree-Fock orbital energies, symmetry 3 ( B2u),    5 occupied SCF orbitals

       -11.02916409   -11.02862181    -0.95421247    -0.59371005    -0.53331424
         0.64637491     0.71912128     0.89595706     1.14950670

 Hartree-Fock orbital energies, symmetry 4 ( B1g),    3 occupied SCF orbitals

       -11.02873767    -0.76667936    -0.43275488     0.73417084     0.88412492
         1.08657367

 Hartree-Fock orbital energies, symmetry 5 ( B1u),    1 occupied SCF orbitals

        -0.45598395     0.26880038

 Hartree-Fock orbital energies, symmetry 6 ( B2g),    1 occupied SCF orbitals

        -0.27979392

 Hartree-Fock orbital energies, symmetry 7 ( B3g),    1 occupied SCF orbitals

        -0.27968108     0.50358424

 Hartree-Fock orbital energies, symmetry 8 ( Au ),    0 occupied SCF orbitals

         0.26865925

    E(LUMO) :     0.26865925   (in symmetry 8)
  - E(HOMO) :    -0.27968108   (in symmetry 7)
  --------------------------
    gap     :     0.54834033

 2-el. integral transformation level 5: Total CPU and WALL times (sec)       0.010       0.010

 MP2 move   0.329427 electrons to unoccupied HF orbitals

@   * MP2 frozen orbitals per symmetry :    2    1    2    1    0    0    0    0

 * Total energy and NO's calculated with frozen orbitals.


@   Hartree-Fock total energy   :          -227.8907889406
@   + MP2 contribution          :            -0.3481620477
@   = MP2 second order energy   :          -228.2389509883

 MP2INFO for SOPPA (RHF orbitals) written to SIRIFC

 Natural orbital occupation numbers, symmetry 1 (irrep Ag )
[...]

   ============
       0.443516
      12.068693
   ============

     HF-SCF KT symmetry 6 ( B2g) in point group D2h -- 1 principal poles with pole strength 1

   ============
       0.272257
       7.408478
   ============

     HF-SCF KT symmetry 7 ( B3g) in point group D2h -- 1 principal poles with pole strength 1

   ============
       0.272265
       7.408704
   ============

@ Summary of HF-SCF KT ionization potentials [eV]:

@ Symmetry 1 (Ag ) :   300.111     300.105      29.238      20.643      17.664
@                       11.654

@ Symmetry 2 (B3u) :   300.112      25.691      14.752      14.317

@ Symmetry 3 (B2u) :   300.112     300.103      25.691      16.092      14.317

@ Symmetry 4 (B1g) :   300.105      20.643      11.654

@ Symmetry 5 (B1u) :    12.069

@ Symmetry 6 (B2g) :     7.408

@ Symmetry 7 (B3g) :     7.409

@ Symmetry 8 (Au ) :  No IPs in this symmetry

  === End of HF-SCF KT output ===
--------------------------------------------------------------------------------


 CPU and wall time for SCF :       0.071       0.071


 ----- Output from SIRIUS MP2 module -----

 Reference: H.J.Aa.Jensen, P.Jørgensen, H.Ågren, and J.Olsen,
            J. Chem. Phys. 88, 3834 (1988); 89, 5354 (1988)

 Checking that the closed shell orbitals are canonical Hartree-Fock orbitals

    Number of electrons  :   42
    Closed shell orbitals:    6    4    5    3    1    1    1    0

 Generating Fock matrix

 Hartree-Fock electronic energy:        -428.298853875422
 Hartree-Fock total      energy:        -227.883686089981

 Hartree-Fock orbital energies, symmetry 1 ( Ag ),    6 occupied SCF orbitals

       -11.02886209   -11.02867280    -1.07449140    -0.75860396    -0.64915536
        -0.42827198     0.56840633     0.70520974     0.86281242

 Hartree-Fock orbital energies, symmetry 2 ( B3u),    4 occupied SCF orbitals

       -11.02892366    -0.94411870    -0.54211426    -0.52613992     0.63702484
         0.87035050

 Hartree-Fock orbital energies, symmetry 3 ( B2u),    5 occupied SCF orbitals

       -11.02892406   -11.02857712    -0.94412383    -0.59137012    -0.52614254
         0.63700801     0.68897614     0.87033393     1.11188861

 Hartree-Fock orbital energies, symmetry 4 ( B1g),    3 occupied SCF orbitals

       -11.02867251    -0.75860913    -0.42828253     0.70520507     0.86280224
         1.05499029

 Hartree-Fock orbital energies, symmetry 5 ( B1u),    1 occupied SCF orbitals

        -0.44351633     0.26381818

 Hartree-Fock orbital energies, symmetry 6 ( B2g),    1 occupied SCF orbitals

        -0.27225658

 Hartree-Fock orbital energies, symmetry 7 ( B3g),    1 occupied SCF orbitals

        -0.27226486     0.49001870

 Hartree-Fock orbital energies, symmetry 8 ( Au ),    0 occupied SCF orbitals

         0.26380818

    E(LUMO) :     0.26380818   (in symmetry 8)
  - E(HOMO) :    -0.27225658   (in symmetry 6)
  --------------------------
    gap     :     0.53606476

 2-el. integral transformation level 5: Total CPU and WALL times (sec)       0.008       0.008

 MP2 move   0.347495 electrons to unoccupied HF orbitals

@   * MP2 frozen orbitals per symmetry :    2    1    2    1    0    0    0    0

 * Total energy and NO's calculated with frozen orbitals.


@   Hartree-Fock total energy   :          -227.8836860900
@   + MP2 contribution          :            -0.3590115810
@   = MP2 second order energy   :          -228.2426976710

 MP2INFO for SOPPA (RHF orbitals) written to SIRIFC

 Natural orbital occupation numbers, symmetry 1 (irrep Ag )
 Sum =    11.98805072; RHF =    12.00000000; Difference =    -0.01194928

         2.00000000     2.00000000     1.99228449     1.98814802     1.98507286
         1.97801579     0.01953552     0.01262098     0.01237305

 Natural orbital occupation numbers, symmetry 2 (irrep B3u)
 Sum =     7.98087223; RHF =     8.00000000; Difference =    -0.01912777

         2.00000000     1.99040863     1.98263532     1.97687457     0.01842666
         0.01252705

 Natural orbital occupation numbers, symmetry 3 (irrep B2u)
 Sum =    10.01814638; RHF =    10.00000000; Difference =     0.01814638

         2.00000000     2.00000000     1.99040867     1.98623772     1.98263564
         0.01842764     0.01726374     0.01252721     0.01064576

 Natural orbital occupation numbers, symmetry 4 (irrep B1g)
 Sum =     6.01116203; RHF =     6.00000000; Difference =     0.01116203

         2.00000000     1.98814815     1.97801664     0.01953618     0.01308813
         0.01237294

 Natural orbital occupation numbers, symmetry 5 (irrep B1u)
 Sum =     2.03333774; RHF =     2.00000000; Difference =     0.03333774

         1.96611958     0.06721816

 Natural orbital occupation numbers, symmetry 6 (irrep B2g)
 Sum =     1.93390199; RHF =     2.00000000; Difference =    -0.06609801

         1.93390199

 Natural orbital occupation numbers, symmetry 7 (irrep B3g)
 Sum =     1.96730757; RHF =     2.00000000; Difference =    -0.03269243

         1.93390510     0.03340247

 Natural orbital occupation numbers, symmetry 8 (irrep Au )
 Sum =     0.06722134; RHF =     0.00000000; Difference =     0.06722134

         0.06722134

 MP2 move   0.347857 electrons to unoccupied HF orbitals

 Full MP2 energy and NO occupations obtained without frozen orbitals.

 NOTE that the orbitals saved on disk are those obtained with frozen orbitals (see above).

 Hartree-Fock total energy :          -227.8836860900
 + MP2 contribution        :            -0.3617670287
 = MP2 second order energy :          -228.2454531187

 Natural orbital occupation numbers, symmetry 1 (irrep Ag )
 Sum =    11.98800942; RHF =    12.00000000; Difference =    -0.01199058

         1.99996676     1.99995984     1.99227420     1.98813944     1.98506632
         1.97800556     0.01957503     0.01263434     0.01238792

 Natural orbital occupation numbers, symmetry 2 (irrep B3u)
 Sum =     7.98084792; RHF =     8.00000000; Difference =    -0.01915208

         1.99996231     1.99039870     1.98262595     1.97686521     0.01845381
         0.01254194

 Natural orbital occupation numbers, symmetry 3 (irrep B2u)
 Sum =    10.01815115; RHF =    10.00000000; Difference =     0.01815115

         1.99996867     1.99996231     1.99039874     1.98622850     1.98262628
         0.01845478     0.01730809     0.01254210     0.01066168

 Natural orbital occupation numbers, symmetry 4 (irrep B1g)
 Sum =     6.01118960; RHF =     6.00000000; Difference =     0.01118960

         1.99996676     1.98813957     1.97800640     0.01957569     0.01311337
         0.01238781

 Natural orbital occupation numbers, symmetry 5 (irrep B1u)
 Sum =     2.03335039; RHF =     2.00000000; Difference =     0.03335039

         1.96610848     0.06724191

 Natural orbital occupation numbers, symmetry 6 (irrep B2g)
 Sum =     1.93388851; RHF =     2.00000000; Difference =    -0.06611149

         1.93388851

 Natural orbital occupation numbers, symmetry 7 (irrep B3g)
 Sum =     1.96731791; RHF =     2.00000000; Difference =    -0.03268209

         1.93389162     0.03342629

 Natural orbital occupation numbers, symmetry 8 (irrep Au )
 Sum =     0.06724510; RHF =     0.00000000; Difference =     0.06724510

         0.06724510

 Time used for MP2 natural orbitals :       0.012 CPU seconds,       0.011 wall seconds.

 CPU and wall time for MP2 :       0.012       0.012


                       .-----------------------------------.
                       | --- Final results from SIRIUS --- |
                       `-----------------------------------'


@    Spin multiplicity:           1
@    Spatial symmetry:            1 ( irrep  Ag  in D2h )
@    Total charge of molecule:    0

@    Final HF energy:            -227.883686089980                 
@    Nuclear repulsion:           200.415167785441
@    Electronic energy:          -428.298853875421

@    Final gradient norm:           0.000000463957

 
     Date and time (Linux)  : Wed Aug  3 13:09:31 2022
     Host name              : adm-110765.pc.sdu.dk                    

  Total CPU  time used in SIRIUS :   0.08 seconds
  Total wall time used in SIRIUS :   0.08 seconds

 
     Date and time (Linux)  : Wed Aug  3 13:09:31 2022
     Host name              : adm-110765.pc.sdu.dk                    


                     .---------------------------------------.
                     | End of Wave Function Section (SIRIUS) |
                     `---------------------------------------'



                    Numerical gradient in symmetry coordinates
                    ------------------------------------------



                         Gradient in symmetry coordinates
                         --------------------------------

                                     0.00001092
                                     0.00001330
                                     0.00000791
                                    -0.00001994
                                    -0.00002450
                                    -0.00001502


                        Gradient in cartesian coordinates
                        ---------------------------------

 H1  _1     0.0000000000            0.0000077197            0.0000000000
 H1  _2     0.0000000000           -0.0000077197            0.0000000000
 H2  _1     0.0000066504            0.0000039568            0.0000000000
 H2  _2    -0.0000066504            0.0000039568            0.0000000000
 H2  _3     0.0000066504           -0.0000039568            0.0000000000
 H2  _4    -0.0000066504           -0.0000039568            0.0000000000
 C1  _1    -0.0000000000           -0.0000141007            0.0000000000
 C1  _2    -0.0000000000            0.0000141007            0.0000000000
 C2  _1    -0.0000122513           -0.0000075081            0.0000000000
 C2  _2     0.0000122513           -0.0000075081            0.0000000000
 C2  _3    -0.0000122513            0.0000075081            0.0000000000
 C2  _4     0.0000122513            0.0000075081            0.0000000000


                     Gradient in Dalton symmetry coordinates
                     ---------------------------------------

                         H1   y     0.0000154395
                         H2   x     0.0000266017
                         H2   y     0.0000158272
                         C1   y    -0.0000282013
                         C2   x    -0.0000490053
                         C2   y    -0.0000300323


@Number of energy   calculations done:        13


 *************************************************************************************
 ****************** Numerical derivatives have now been calculated. ******************
 *************************************************************************************



            *********************************************************
            *** Output from geometry convergence control (MINEND) ***
            *********************************************************


 Energy converged       yes 
 Gradient converged     yes 
 Step converged         yes 
 Conditions fullfilled   3
 Required conditions     2
 Totally sym. index      0
 Hessian index           0
 End of optimization    yes 


           :::::::::::::::::::::::::::::::::::::::::::::::::::::::::::
           ::::::::::::::: Optimization Control Center :::::::::::::::
           :::::::::::::::::::::::::::::::::::::::::::::::::::::::::::



                               Final geometry (au)
                               -------------------

 H1  _1     0.0000000000            4.7566662321            0.0000000000
 H1  _2     0.0000000000           -4.7566662321            0.0000000000
 H2  _1     4.1193881248            2.3783198678            0.0000000000
 H2  _2    -4.1193881248            2.3783198678            0.0000000000
 H2  _3     4.1193881248           -2.3783198678            0.0000000000
 H2  _4    -4.1193881248           -2.3783198678            0.0000000000
 C1  _1     0.0000000000            2.6761958601            0.0000000000
 C1  _2     0.0000000000           -2.6761958601            0.0000000000
 C2  _1     2.3176516746            1.3381131426            0.0000000000
 C2  _2    -2.3176516746            1.3381131426            0.0000000000
 C2  _3     2.3176516746           -1.3381131426            0.0000000000
 C2  _4    -2.3176516746           -1.3381131426            0.0000000000





                             Optimization information
                             ------------------------

 Iteration number               :       3
 End of optimization            :       T 
 Energy at this geometry is     :    -228.242697671019
 Energy change from last geom.  :      -0.000000281145
 Predicted change               :      -0.000000302358
 Ratio, actual/predicted change :       0.929841541513
 Norm of gradient               :       0.000039777480
 Norm of step                   :       0.000078449140
 Updated trust radius           :       0.500000000000
 Total effective Hessian index  :       0




          <<<<<<<<<<<<<<<<<<<<<<<<<<<<<<<<<<<<<<<<<<<<<<<<<<<<<<<<<<<<<<
          <<<<<<<<<<<<<<<<<<<<  End of Optimization <<<<<<<<<<<<<<<<<<<<
          <<<<<<<<<<<<<<<<<<<<<<<<<<<<<<<<<<<<<<<<<<<<<<<<<<<<<<<<<<<<<<



                              Final geometry (bohr)
                              ---------------------

 H1  _1     0.0000000000            4.7566662321            0.0000000000
 H1  _2     0.0000000000           -4.7566662321            0.0000000000
 H2  _1     4.1193881248            2.3783198678            0.0000000000
 H2  _2    -4.1193881248            2.3783198678            0.0000000000
 H2  _3     4.1193881248           -2.3783198678            0.0000000000
 H2  _4    -4.1193881248           -2.3783198678            0.0000000000
 C1  _1     0.0000000000            2.6761958601            0.0000000000
 C1  _2     0.0000000000           -2.6761958601            0.0000000000
 C2  _1     2.3176516746            1.3381131426            0.0000000000
 C2  _2    -2.3176516746            1.3381131426            0.0000000000
 C2  _3     2.3176516746           -1.3381131426            0.0000000000
 C2  _4    -2.3176516746           -1.3381131426            0.0000000000





                      Final geometry (xyz format; angstrom)
                      -------------------------------------

12

H1       0.0000000000            2.5171193694            0.0000000000
H1       0.0000000000           -2.5171193694            0.0000000000
H2       2.1798863181            1.2585526740            0.0000000000
H2      -2.1798863181            1.2585526740            0.0000000000
H2       2.1798863181           -1.2585526740            0.0000000000
H2      -2.1798863181           -1.2585526740            0.0000000000
C1       0.0000000000            1.4161818608            0.0000000000
C1       0.0000000000           -1.4161818608            0.0000000000
C2       1.2264484488            0.7080989805            0.0000000000
C2      -1.2264484488            0.7080989805            0.0000000000
C2       1.2264484488           -0.7080989805            0.0000000000
C2      -1.2264484488           -0.7080989805            0.0000000000



@ Iter     Energy        Change       GradNorm  Index   StepLen    TrustRad #Rej
@ ------------------------------------------------------------------------------
@   0     -228.238787     0.000000     0.040623    0    0.276047*   0.500000   0 
@   1     -228.242606    -0.003819     0.006665    0    0.049117*   0.500000   0 
@   2     -228.242697    -0.000091     0.000542    0    0.002925*   0.500000   0 
@   3     -228.242698    -0.000000     0.000040    0    0.000078*   0.500000   0 

@  *) Newton step taken.


   Interatomic separations (in Angstrom):
   --------------------------------------

            H1  _1      H1  _2      H2  _1      H2  _2      H2  _3      H2  _4
            ------      ------      ------      ------      ------      ------
 H1  _1:    0.000000
 H1  _2:    5.034239    0.000000
 H2  _1:    2.517120    4.359771    0.000000
 H2  _2:    2.517120    4.359771    4.359773    0.000000
 H2  _3:    4.359771    2.517120    2.517105    5.034227    0.000000
 H2  _4:    4.359771    2.517120    5.034227    2.517105    4.359773    0.000000
 C1  _1:    1.100938    3.933301    2.185578    2.185578    3.450523    3.450523
 C1  _2:    3.933301    1.100938    3.450523    3.450523    2.185578    2.185578
 C2  _1:    2.185573    3.450538    1.100928    3.450524    2.185581    3.933298
 C2  _2:    2.185573    3.450538    3.450524    1.100928    3.933298    2.185581
 C2  _3:    3.450538    2.185573    2.185581    3.933298    1.100928    3.450524
 C2  _4:    3.450538    2.185573    3.933298    2.185581    3.450524    1.100928

            C1  _1      C1  _2      C2  _1      C2  _2      C2  _3      C2  _4
            ------      ------      ------      ------      ------      ------
 C1  _1:    0.000000
 C1  _2:    2.832364    0.000000
 C2  _1:    1.416177    2.452905    0.000000
 C2  _2:    1.416177    2.452905    2.452897    0.000000
 C2  _3:    2.452905    1.416177    1.416198    2.832370    0.000000
 C2  _4:    2.452905    1.416177    2.832370    1.416198    2.452897    0.000000


  Max    interatomic separation is    5.0342 Angstrom (    9.5133 Bohr)
  between atoms    2 and    1, "H1  _2" and "H1  _1".

  Min HX interatomic separation is    1.1009 Angstrom (    2.0805 Bohr)

  Min YX interatomic separation is    1.4162 Angstrom (    2.6762 Bohr)


  Bond distances (Angstrom):
  --------------------------

                  atom 1     atom 2       distance
                  ------     ------       --------
  bond distance:  C1  _1     H1  _1       1.100938
  bond distance:  C1  _2     H1  _2       1.100938
  bond distance:  C2  _1     H2  _1       1.100928
  bond distance:  C2  _1     C1  _1       1.416177
  bond distance:  C2  _2     H2  _2       1.100928
  bond distance:  C2  _2     C1  _1       1.416177
  bond distance:  C2  _3     H2  _3       1.100928
  bond distance:  C2  _3     C1  _2       1.416177
  bond distance:  C2  _3     C2  _1       1.416198
  bond distance:  C2  _4     H2  _4       1.100928
  bond distance:  C2  _4     C1  _2       1.416177
  bond distance:  C2  _4     C2  _2       1.416198


  Bond angles (degrees):
  ----------------------

                  atom 1     atom 2     atom 3         angle
                  ------     ------     ------         -----
  bond angle:     H1  _1     C1  _1     C2  _1       120.000
  bond angle:     H1  _1     C1  _1     C2  _2       120.000
  bond angle:     C2  _1     C1  _1     C2  _2       120.001
  bond angle:     H1  _2     C1  _2     C2  _3       120.000
  bond angle:     H1  _2     C1  _2     C2  _4       120.000
  bond angle:     C2  _3     C1  _2     C2  _4       120.001
  bond angle:     H2  _1     C2  _1     C1  _1       120.001
  bond angle:     H2  _1     C2  _1     C2  _3       119.999
  bond angle:     C1  _1     C2  _1     C2  _3       120.000
  bond angle:     H2  _2     C2  _2     C1  _1       120.001
  bond angle:     H2  _2     C2  _2     C2  _4       119.999
  bond angle:     C1  _1     C2  _2     C2  _4       120.000
  bond angle:     H2  _3     C2  _3     C1  _2       120.001
  bond angle:     H2  _3     C2  _3     C2  _1       119.999
  bond angle:     C1  _2     C2  _3     C2  _1       120.000
  bond angle:     H2  _4     C2  _4     C1  _2       120.001
  bond angle:     H2  _4     C2  _4     C2  _2       119.999
  bond angle:     C1  _2     C2  _4     C2  _2       120.000



@ Geometry converged in  4 iterations!

@ Energy at final geometry is       :    -228.242698 a.u.
@ Energy change during optimization :      -0.003911 a.u.
@                                            -10.268 kJ/mol

  Total CPU  time used in DALTON:   5.71 seconds
  Total wall time used in DALTON:   6.56 seconds

 
     Date and time (Linux)  : Wed Aug  3 13:09:31 2022
     Host name              : adm-110765.pc.sdu.dk                    
