

     ************************************************************************
     *************** Dalton - An Electronic Structure Program ***************
     ************************************************************************

    This is output from DALTON release Dalton2022.0-dev (2022)
         ( Web site: http://daltonprogram.org )

   ----------------------------------------------------------------------------

    NOTE:
     
    Dalton is an experimental code for the evaluation of molecular
    properties using (MC)SCF, DFT, CI, and CC wave functions.
    The authors accept no responsibility for the performance of
    the code or for the correctness of the results.
     
    The code (in whole or part) is provided under a licence and
    is not to be reproduced for further distribution without
    the written permission of the authors or their representatives.
     
    See the home page "http://daltonprogram.org" for further information.
     
    If results obtained with this code are published,
    the appropriate citations would be both of:
     
       K. Aidas, C. Angeli, K. L. Bak, V. Bakken,
       R. Bast, L. Boman, O. Christiansen, R. Cimiraglia,
       S. Coriani, P. Dahle, E. K. Dalskov, U. Ekstroem,
       T. Enevoldsen, J. J. Eriksen, P. Ettenhuber, B. Fernandez,
       L. Ferrighi, H. Fliegl, L. Frediani, K. Hald, A. Halkier,
       C. Haettig, H. Heiberg, T. Helgaker, A. C. Hennum,
       H. Hettema, E. Hjertenaes, S. Hoest, I.-M. Hoeyvik,
       M. F. Iozzi, B. Jansik, H. J. Aa. Jensen, D. Jonsson,
       P. Joergensen, J. Kauczor, S. Kirpekar,
       T. Kjaergaard, W. Klopper, S. Knecht, R. Kobayashi, H. Koch,
       J. Kongsted, A. Krapp, K. Kristensen, A. Ligabue,
       O. B. Lutnaes, J. I. Melo, K. V. Mikkelsen, R. H. Myhre,
       C. Neiss, C. B. Nielsen, P. Norman, J. Olsen,
       J. M. H. Olsen, A. Osted, M. J. Packer, F. Pawlowski,
       T. B. Pedersen, P. F. Provasi, S. Reine, Z. Rinkevicius,
       T. A. Ruden, K. Ruud, V. Rybkin, P. Salek, C. C. M. Samson,
       A. Sanchez de Meras, T. Saue, S. P. A. Sauer,
       B. Schimmelpfennig, K. Sneskov, A. H. Steindal,
       K. O. Sylvester-Hvid, P. R. Taylor, A. M. Teale,
       E. I. Tellgren, D. P. Tew, A. J. Thorvaldsen, L. Thoegersen,
       O. Vahtras, M. A. Watson, D. J. D. Wilson, M. Ziolkowski
       and H. Agren,
       "The Dalton quantum chemistry program system",
       WIREs Comput. Mol. Sci. 2014, 4:269–284 (doi: 10.1002/wcms.1172)
     
    and
     
       Dalton, a molecular electronic structure program,
       Release Dalton2022.0-dev (2022), see http://daltonprogram.org
   ----------------------------------------------------------------------------

    Authors in alphabetical order (Major contribution(s) in parenthesis):

  Kestutis Aidas,              Vilnius University,        Lithuania   (QM/MM)
  Celestino Angeli,            University of Ferrara,     Italy       (NEVPT2)
  Juan J. Aucar,               Northeast National UniversiArgentina   (LRESC, Relativistic Effects on EFG)
  Keld L. Bak,                 UNI-C,                     Denmark     (AOSOPPA, non-adiabatic coupling, magnetic properties)
  Vebjoern Bakken,             University of Oslo,        Norway      (DALTON; geometry optimizer, symmetry detection)
  Radovan Bast,                UiT The Arctic U. of NorwayNorway      (DALTON installation and execution frameworks)
  Pablo Baudin,                University of Valencia,    Spain       (Cholesky excitation energies)
  Linus Boman,                 NTNU,                      Norway      (Cholesky decomposition and subsystems)
  Bruno N. Cabral Tenorio,     Technical Univ. of Denmark,Denmark     (Lanczos-based CC methods)
  Ove Christiansen,            Aarhus University,         Denmark     (CC module)
  Renzo Cimiraglia,            University of Ferrara,     Italy       (NEVPT2)
  Sonia Coriani,               Technical Univ. of Denmark,Denmark     (CC and RESPONS modules)
  Janusz Cukras,               University of Warsaw,      Poland      (MChD in RESPONS)
  Paal Dahle,                  University of Oslo,        Norway      (Parallelization)
  Erik K. Dalskov,             UNI-C,                     Denmark     (SOPPA)
  Thomas Enevoldsen,           Univ. of Southern Denmark, Denmark     (SOPPA)
  Janus J. Eriksen,            Aarhus University,         Denmark     (Polarizable embedding, TDA)
  Rasmus Faber,                Technical Univ. of Denmark,Denmark     (Vib.avg. NMR w. SOPPA, parallel AO-SOPPA, CVS-CC and EOMCC)
  Tobias Fahleson,             KTH Stockholm,             Sweden      (Damped cubic response)
  Berta Fernandez,             U. of Santiago de CompostelSpain       (Doublet spin, ESR in RESPONS)
  Lara Ferrighi,               Aarhus University,         Denmark     (PCM Cubic response)
  Heike Fliegl,                University of Oslo,        Norway      (CCSD(R12))
  Luca Frediani,               UiT The Arctic U. of NorwayNorway      (PCM)
  Emmanuel Fromager,           Univ. Strasbourg,          France      (MC-srDFT)
  Bin Gao,                     UiT The Arctic U. of NorwayNorway      (Gen1Int library)
  Andre S. P. Gomes,           CNRS/Universite de Lille,  France      (Frozen density embedding)
  Christof Haettig,            Ruhr-University Bochum,    Germany     (CC module)
  Kasper Hald,                 Aarhus University,         Denmark     (CC module)
  Asger Halkier,               Aarhus University,         Denmark     (CC module)
  Frederik Beyer Hansen,       University of Copenhagen,  Denmark     (Parallel AO-SOPPA)
  Erik D. Hedegaard,           Univ. of Southern Denmark, Denmark     (Polarizable embedding, QM/MM, and MC-srDFT)
  Hanne Heiberg,               University of Oslo,        Norway      (Geometry analysis, selected one-electron integrals)
  Trygve Helgaker,             University of Oslo,        Norway      (DALTON; ABACUS, ERI, DFT modules, London, and much more)
  Alf Christian Hennum,        University of Oslo,        Norway      (Parity violation)
  Hinne Hettema,               University of Auckland,    New Zealand (Quadratic response in RESPONS; SIRIUS supersymmetry)
  Andreas E. Hillers-Bendtsen, University of Copenhagen,  Denmark     (MP3)
  Eirik Hjertenaes,            NTNU,                      Norway      (Cholesky decomposition)
  Nicolai Machholdt Hoeyer,    Aarhus University,         Denmark     (MP3)
  Pi A. B. Haase,              University of Copenhagen,  Denmark     (Triplet AO-SOPPA)
  Maria Francesca Iozzi,       University of Oslo,        Norway      (RPA)
  Christoph Jacob,             TU Braunschweig            Germany     (Frozen density embedding)
  Brano Jansik,                Technical Univ. of Ostrava Czech Rep.  (DFT cubic response)
  Hans Joergen Aa. Jensen,     Univ. of Southern Denmark, Denmark     (DALTON; SIRIUS, RESPONS, ABACUS, MC-srDFT, and much more)
  Dan Jonsson,                 UiT The Arctic U. of NorwayNorway      (Cubic response in RESPONS module)
  Poul Joergensen,             Aarhus University,         Denmark     (RESPONS, ABACUS, and CC modules)
  Maciej Kaminski,             University of Warsaw,      Poland      (CPPh in RESPONS)
  Joanna Kauczor,              Linkoeping University,     Sweden      (Complex polarization propagator (CPP) module)
  Sheela Kirpekar,             Univ. of Southern Denmark, Denmark     (Mass-velocity & Darwin integrals)
  Frederik Oersted Kjeldal,    Technical Univ. of Denmark,Denmark     (MP3)
  Erik Kjellgren,              Univ. of Southern Denmark, Denmark     (MC-srDFT)
  Wim Klopper,                 KIT Karlsruhe,             Germany     (R12 code in CC, SIRIUS, and ABACUS modules)
  Stefan Knecht,               ETH Zurich,                Switzerland (Parallel CI and MCSCF, MC-srDFT)
  Rika Kobayashi,              Australian National Univ., Australia   (DIIS in CC, London in MCSCF)
  Henrik Koch,                 NTNU,                      Norway      (CC module, Cholesky decomposition)
  Jacob Kongsted,              Univ. of Southern Denmark, Denmark     (Polarizable embedding, polarizable density embedding, QM/MM)
  Andrea Ligabue,              University of Modena,      Italy       (CTOCD, AOSOPPA)
  Nanna H. List,               Univ. of Southern Denmark, Denmark     (Polarizable embedding)
  Ola B. Lutnaes,              University of Oslo,        Norway      (DFT Hessian)
  Juan I. Melo,                University of Buenos Aires,Argentina   (LRESC, Relativistic Effects on NMR Shieldings)
  Kurt V. Mikkelsen,           University of Copenhagen,  Denmark     (MC-SCRF, QM/MM, and MP3)
  Rolf H. Myhre,               NTNU,                      Norway      (Subsystems and CC3)
  Christian Neiss,             Univ. Erlangen-Nuernberg,  Germany     (CCSD(R12))
  Christian B. Nielsen,        University of Copenhagen,  Denmark     (QM/MM)
  Patrick Norman,              KTH Stockholm,             Sweden      (Cubic response and complex frequency response in RESPONS)
  Jeppe Olsen,                 Aarhus University,         Denmark     (SIRIUS CI/density modules)
  Jogvan Magnus H. Olsen,      Aarhus University,         Denmark     (Polarizable embedding and polarizable density embedding)
  Anders Osted,                Copenhagen University,     Denmark     (QM/MM)
  Martin J. Packer,            University of Sheffield,   UK          (SOPPA)
  Filip Pawlowski,             Kazimierz Wielki UniversityPoland      (CC3)
  Morten N. Pedersen,          Univ. of Southern Denmark, Denmark     (Polarizable embedding)
  Thomas B. Pedersen,          University of Oslo,        Norway      (Cholesky decomposition)
  Patricio F. Provasi,         University of Northeastern,Argentina   (Analysis of coupling constants in localized orbitals)
  Peter Reinholdt,             Univ. of Southern Denmark, Denmark     (Polarizable embedding and polarizable density embedding)
  Zilvinas Rinkevicius,        KTH Stockholm,             Sweden      (open-shell DFT, ESR)
  Elias Rudberg,               KTH Stockholm,             Sweden      (DFT grid and basis info)
  Torgeir A. Ruden,            University of Oslo,        Norway      (Numerical derivatives in ABACUS)
  Kenneth Ruud,                UiT The Arctic U. of NorwayNorway      (DALTON; ABACUS magnetic properties and much more)
  Pawel Salek,                 KTH Stockholm,             Sweden      (DALTON; DFT code)
  Claire C. M. Samson,         University of Karlsruhe    Germany     (Boys localization, r12 integrals in ERI)
  Alfredo Sanchez de Meras,    University of Valencia,    Spain       (CC module, Cholesky decomposition)
  Trond Saue,                  Paul Sabatier University,  France      (direct Fock matrix construction)
  Stephan P. A. Sauer,         University of Copenhagen,  Denmark     (SOPPA(CCSD), SOPPA prop., AOSOPPA, vibrational g-factors)
  Bernd Schimmelpfennig,       Forschungszentrum KarlsruheGermany     (AMFI module)
  Anna K. Schnack-Petersen,    University of Copenhagen,  Denmark     (RPA(D) and HRPA(D) properties in AOSOPPA)
  Kristian Sneskov,            Aarhus University,         Denmark     (Polarizable embedding, QM/MM)
  Arnfinn H. Steindal,         UiT The Arctic U. of NorwayNorway      (parallel QM/MM, polarizable embedding)
  Casper Steinmann,            Aalborg University,        Denmark     (QFIT, polarizable embedding)
  K. O. Sylvester-Hvid,        University of Copenhagen,  Denmark     (MC-SCRF)
  Peter R. Taylor,             VLSCI/Univ. of Melbourne,  Australia   (Symmetry handling ABACUS, integral transformation)
  Andrew M. Teale,             University of Nottingham,  England     (DFT-AC, DFT-D)
  David P. Tew,                University of Bristol,     England     (CCSD(R12))
  Julien Toulouse,             Sorbonne Univ.,            France      (MC-srDFT)
  Olav Vahtras,                KTH Stockholm,             Sweden      (Triplet response, spin-orbit, ESR, TDDFT, open-shell DFT)
  Lucas Visscher,              Vrije Universiteit AmsterdaNetherlands (Frozen density embedding)
  David J. Wilson,             La Trobe University,       Australia   (DFT Hessian and DFT magnetizabilities)
  Luna Zamok,                  University of Copenhagen,  Denmark     (Block Lanczos RPA solver in SOPPA module)
  Hans Agren,                  KTH Stockholm,             Sweden      (SIRIUS module, RESPONS, MC-SCRF solvation)
 --------------------------------------------------------------------------------

     Date and time (Linux)  : Mon Aug  1 14:11:50 2022
     Host name              : adm-110765.pc.sdu.dk                    

 * Work memory size             :    64000000 =  488.28 megabytes.

 * Directories for basis set searches:
   1) /home/hjj/progs/gitDalton_master/build_master-WIP2_myompi/test/geoopt_prop3_ex
   2) /home/hjj/progs/gitDalton_master/build_master-WIP2_myompi/basis


Compilation information
-----------------------

 Who compiled             | hjj
 Host                     | adm-110765.pc.sdu.dk
 System                   | Linux-5.15.0-41-generic
 CMake generator          | Unix Makefiles
 Processor                | x86_64
 64-bit integers          | OFF
 MPI                      | ON
 Fortran compiler         | /home/hjj/my_libs/openmpi/bin/mpif90
 Fortran compiler version | GNU Fortran (Ubuntu 11.2.0-19ubuntu1) 11.2.0
 C compiler               | /home/hjj/my_libs/openmpi/bin/mpicc
 C compiler version       | gcc (Ubuntu 11.2.0-19ubuntu1) 11.2.0
 C++ compiler             | /home/hjj/my_libs/openmpi/bin/mpicxx
 C++ compiler version     | unknown
 BLAS                     | /usr/lib/x86_64-linux-gnu/libopenblas.so
 LAPACK                   | /usr/lib/x86_64-linux-gnu/liblapack.so
 Static linking           | OFF
 Last Git revision        | f63e026faccac4df20ea5914096621c383b74b40
 Git branch               | WIP-master
 Configuration time       | 2022-08-01 13:54:03.092008

 * Sequential calculation.


   Content of the .dal input file
 ----------------------------------

**DALTON INPUT
.OPTIMIZE
.NEWTRA
*OPTIMIZE
.2NDORDER
**WAVE FUNCTIONS
.HF
.MP2
.MCSCF
*SCF INPUT
.DOUBLY OCCUPIED
 6 4 1 1
*OPTIMIZATION
.STATE
 2
*CONFIGURATION INPUT
.SYMMETRY
 1
.SPIN MUL
 1
.INACTIVE
 4 2 0 0
.ELECTRONS
 12
.CAS SPACE
 3 3 2 1
**EACH STEP
.VIBANA
**PROPERTIES
.VIBANA
.MAGNET
.SHIELD
**END OF DALTON INPUT


   Content of the .mol file
 ----------------------------

BASIS
aug-cc-pVDZ
Geometry optimization, calculation of magnetizabilities
and nuclear shieldings at the optimized geometry
    1    2  Y  Z
        8.    2
OS         .0000000000        0.0000000000         .0000000000             *
OP        1.2634502500        2.0449019100         .0000000000             *


       *******************************************************************
       *********** Output from DALTON general input processing ***********
       *******************************************************************

 --------------------------------------------------------------------------------
   Overall default print level:    0
   Print level for DALTON.STAT:    1

    "New" (from 1988!) integral transformation used
 --------------------------------------------------------------------------------


 Chosen parameters for *OPTIMI :
 -------------------------------

 Default 2nd order method will be used:   Newton method.
 Optimization will be performed in Cartesian coordinates (by default).
 Initial diagonal Hessian will have elements equal to:   1.000000


 Trust region method will be used to control step (default).

 Convergence threshold for gradient set to :      1.00D-04
 Convergence threshold for energy set to   :      1.00D-06
 Convergence threshold for step set to     :      1.00D-04
 Number of convergence criteria set to     :   2


              >>>>>>>>>>>>>>>>>>>>>>>>>>>>>>>>>>>>>>>>>>>>>>>>>>>>>
              >>>>>>>>>> 2nd Order Geometry Optimization >>>>>>>>>>
              >>>>>>>>>>>>>>>>>>>>>>>>>>>>>>>>>>>>>>>>>>>>>>>>>>>>>


 Reading .mol file to determine number of atoms for parallel runs.


   ****************************************************************************
   *************** Output of molecule and basis set information ***************
   ****************************************************************************


    The two title cards from your ".mol" input:
    ------------------------------------------------------------------------
 1: Geometry optimization, calculation of magnetizabilities                 
 2: and nuclear shieldings at the optimized geometry                        
    ------------------------------------------------------------------------

  Atomic type no.    1
  --------------------
  Nuclear charge:   8.00000
  Number of symmetry independent centers:    2
  Number of basis sets to read;    2
  Basis set file used for this atomic type with Z =   8 :
     "/home/hjj/progs/gitDalton_master/build_master-WIP2_myompi/basis/aug-cc-pVDZ"


                         SYMGRP: Point group information
                         -------------------------------

@    Point group: C2v

@  * The irrep name for each symmetry:    1: A1     2: B1     3: B2     4: A2 

   * The point group was generated by:

      Reflection in the xz-plane
      Reflection in the xy-plane

   * Group multiplication table

        |  E   C2x  Oxy  Oxz
   -----+--------------------
     E  |  E   C2x  Oxy  Oxz
    C2x | C2x   E   Oxz  Oxy
    Oxy | Oxy  Oxz   E   C2x
    Oxz | Oxz  Oxy  C2x   E 

   * Character table

        |  E   C2x  Oxy  Oxz
   -----+--------------------
    A1  |   1    1    1    1
    B1  |   1   -1    1   -1
    B2  |   1   -1   -1    1
    A2  |   1    1   -1   -1

   * Direct product table

        | A1   B1   B2   A2 
   -----+--------------------
    A1  | A1   B1   B2   A2 
    B1  | B1   A1   A2   B2 
    B2  | B2   A2   A1   B1 
    A2  | A2   B2   B1   A1 


                                 Isotopic Masses
                                 ---------------

                           OS         15.994915
                           OP  _1     15.994915
                           OP  _2     15.994915

                       Total mass:    47.984745 amu
                       Natural abundance:  99.282 %

 Center-of-mass coordinates (a.u.):    0.842300    0.000000    0.000000
 Center-of-mass coordinates (Angs):    0.445726    0.000000    0.000000


  Atoms and basis sets
  --------------------

  Number of atom types :    1
  Total number of atoms:    3

  Basis set used is "aug-cc-pVDZ" from the basis set library.

  label    atoms   charge   prim   cont     basis
  ----------------------------------------------------------------------
  OP          3    8.0000    35    23      [10s5p2d|4s3p2d]                                   
  ----------------------------------------------------------------------
  total:      3   24.0000   105    69
  ----------------------------------------------------------------------
  Spherical harmonic basis used.

  Threshold for neglecting AO integrals:  1.00D-12


  Cartesian Coordinates (a.u.)
  ----------------------------

  Total number of coordinates:    9
  OS      :     1  x   0.0000000000    2  y   0.0000000000    3  z   0.0000000000
  OP  / 1 :     4  x   1.2634502500    5  y   2.0449019100    6  z   0.0000000000
  OP  / 2 :     7  x   1.2634502500    8  y  -2.0449019100    9  z   0.0000000000


  Symmetry Coordinates
  --------------------

  Number of coordinates in each symmetry:     3    3    2    1

  Symmetry  A1  ( 1)

    1   OS    x    1
    2   OP    x    [  4  +    7 ]/2
    3   OP    y    [  5  -    8 ]/2

  Symmetry  B1  ( 2)

    4   OS    y    2
    5   OP    x    [  4  -    7 ]/2
    6   OP    y    [  5  +    8 ]/2

  Symmetry  B2  ( 3)

    7   OS    z    3
    8   OP    z    [  6  +    9 ]/2

  Symmetry  A2  ( 4)

    9   OP    z    [  6  -    9 ]/2


   Interatomic separations (in Angstrom):
   --------------------------------------

            OS          OP  _1      OP  _2
            ------      ------      ------
 OS    :    0.000000
 OP  _1:    1.272001    0.000000
 OP  _2:    1.272001    2.164231    0.000000


  Max    interatomic separation is    2.1642 Angstrom (    4.0898 Bohr)
  between atoms    3 and    2, "OP  _2" and "OP  _1".

  Min YX interatomic separation is    1.2720 Angstrom (    2.4037 Bohr)


  Bond distances (Angstrom):
  --------------------------

                  atom 1     atom 2       distance
                  ------     ------       --------
  bond distance:  OP  _1     OS           1.272001
  bond distance:  OP  _2     OS           1.272001


  Bond angles (degrees):
  ----------------------

                  atom 1     atom 2     atom 3         angle
                  ------     ------     ------         -----
  bond angle:     OP  _1     OS         OP  _2       116.580




 Principal moments of inertia (u*A**2) and principal axes
 --------------------------------------------------------

   IA       4.766606          0.000000    1.000000    0.000000
   IB      37.459257          1.000000    0.000000    0.000000
   IC      42.225863          0.000000    0.000000    1.000000


 Rotational constants
 --------------------

@    The molecule is planar.

               A                   B                   C

         106024.9222          13491.4317          11968.4708 MHz
            3.536611            0.450026            0.399225 cm-1


@  Nuclear repulsion energy :   68.899188090779 Hartree


  Symmetry Orbitals
  -----------------

  Number of orbitals in each symmetry:          27   21   12    9


  Symmetry  A1 ( 1)

    1     OS       1s         1
    2     OS       1s         2
    3     OS       1s         3
    4     OS       1s         4
    5     OS       2px        5
    6     OS       2px        8
    7     OS       2px       11
    8     OS       3d0       16
    9     OS       3d2+      18
   10     OS       3d0       21
   11     OS       3d2+      23
   12     OP       1s        24 +   25
   13     OP       1s        26 +   27
   14     OP       1s        28 +   29
   15     OP       1s        30 +   31
   16     OP       2px       32 +   33
   17     OP       2py       34 -   35
   18     OP       2px       38 +   39
   19     OP       2py       40 -   41
   20     OP       2px       44 +   45
   21     OP       2py       46 -   47
   22     OP       3d2-      50 -   51
   23     OP       3d0       54 +   55
   24     OP       3d2+      58 +   59
   25     OP       3d2-      60 -   61
   26     OP       3d0       64 +   65
   27     OP       3d2+      68 +   69


  Symmetry  B1 ( 2)

   28     OS       2py        6
   29     OS       2py        9
   30     OS       2py       12
   31     OS       3d2-      14
   32     OS       3d2-      19
   33     OP       1s        24 -   25
   34     OP       1s        26 -   27
   35     OP       1s        28 -   29
   36     OP       1s        30 -   31
   37     OP       2px       32 -   33
   38     OP       2py       34 +   35
   39     OP       2px       38 -   39
   40     OP       2py       40 +   41
   41     OP       2px       44 -   45
   42     OP       2py       46 +   47
   43     OP       3d2-      50 +   51
   44     OP       3d0       54 -   55
   45     OP       3d2+      58 -   59
   46     OP       3d2-      60 +   61
   47     OP       3d0       64 -   65
   48     OP       3d2+      68 -   69


  Symmetry  B2 ( 3)

   49     OS       2pz        7
   50     OS       2pz       10
   51     OS       2pz       13
   52     OS       3d1+      17
   53     OS       3d1+      22
   54     OP       2pz       36 +   37
   55     OP       2pz       42 +   43
   56     OP       2pz       48 +   49
   57     OP       3d1-      52 -   53
   58     OP       3d1+      56 +   57
   59     OP       3d1-      62 -   63
   60     OP       3d1+      66 +   67


  Symmetry  A2 ( 4)

   61     OS       3d1-      15
   62     OS       3d1-      20
   63     OP       2pz       36 -   37
   64     OP       2pz       42 -   43
   65     OP       2pz       48 -   49
   66     OP       3d1-      52 +   53
   67     OP       3d1+      56 -   57
   68     OP       3d1-      62 +   63
   69     OP       3d1+      66 -   67

  Symmetries of electric field:  A1 (1)  B1 (2)  B2 (3)

  Symmetries of magnetic field:  A2 (4)  B2 (3)  B1 (2)


                     .---------------------------------------.
                     | Starting in Integral Section (HERMIT) |
                     `---------------------------------------'



 ***************************************************************************************
 ****************** Output from **INTEGRALS input processing (HERMIT) ******************
 ***************************************************************************************


 - Using defaults, no **INTEGRALS input found

 Default print level:        1

 Calculation of one- and two-electron Hamiltonian integrals.

 Center of mass  (bohr):      0.842300166667      0.000000000000      0.000000000000
 Operator center (bohr):      0.000000000000      0.000000000000      0.000000000000
 Gauge origin    (bohr):      0.000000000000      0.000000000000      0.000000000000
 Dipole origin   (bohr):      0.000000000000      0.000000000000      0.000000000000

Calculation of 2-electron integrals are postponed until they are needed.


     ************************************************************************
     ************************** Output from HERINT **************************
     ************************************************************************



                      Nuclear contribution to dipole moments
                      --------------------------------------

                 au               Debye          C m (/(10**-30)

      x     20.21520400        51.38192013       171.39163697


  Total CPU  time used in HERMIT:   0.03 seconds
  Total wall time used in HERMIT:   0.02 seconds


                        .----------------------------------.
                        | End of Integral Section (HERMIT) |
                        `----------------------------------'



                   .--------------------------------------------.
                   | Starting in Wave Function Section (SIRIUS) |
                   `--------------------------------------------'


 CI program in use: SIRIUS-CI

 *** Output from Huckel module :

     Using EWMO model:          F
     Using EHT  model:          T
     Number of Huckel orbitals each symmetry:    7    5    2    1

 Huckel EHT eigenvalues for symmetry :  1
          -20.699402     -20.689226      -1.729687      -1.040767      -0.734624
           -0.537512      -0.406137

 Huckel EHT eigenvalues for symmetry :  2
          -20.691361      -1.341378      -0.690151      -0.562527      -0.368329

 Huckel EHT eigenvalues for symmetry :  3
           -0.772074      -0.484532

 Huckel EHT eigenvalues for symmetry :  4
           -0.591994

 SETCI, core memory needed for CI:
 LCINDX =        5505
 LACIMX =        5975
 LBCIMX =           0

 Number of determinants:          1788

 Number of configurations:         666

 Time used in SETCI :      3.05s

 **********************************************************************
 *SIRIUS* a direct, restricted step, second order MCSCF program       *
 **********************************************************************

 
     Date and time (Linux)  : Mon Aug  1 14:11:50 2022
     Host name              : adm-110765.pc.sdu.dk                    

 Title lines from ".mol" input file:
     Geometry optimization, calculation of magnetizabilities                 
     and nuclear shieldings at the optimized geometry                        

 Print level on unit LUPRI =   2 is   0
 Print level on unit LUW4  =   2 is   5

@    MCSCF optimization.
@              Type: complete active space calculation (CAS).

@    This is a combination run starting with
@              a restricted, closed shell Hartree-Fock calculation
@              an MP2 calculation


 Initial molecular orbitals are obtained according to
 ".MOSTART EHT   " input option

     Wave function specification
     ============================
@    Wave function type        --- MC-SCF ---
@    Number of closed shell electrons          12
@    Number of electrons in active shells      12
@    Total charge of the molecule               0

@    Spin multiplicity and 2 M_S                1         0
@    Total number of symmetries                 4 (point group: C2v)
@    Reference state symmetry                   1 (irrep name : A1 )

     Orbital specifications
     ======================
@    Abelian symmetry species          All |    1    2    3    4
@                                          |  A1   B1   B2   A2 
                                       --- |  ---  ---  ---  ---
@    Inactive orbitals                   6 |    4    2    0    0
@    Active orbitals                     9 |    3    3    2    1
@    Secondary orbitals                 54 |   20   16   10    8
@    Total number of orbitals           69 |   27   21   12    9
@    Number of basis functions          69 |   27   21   12    9

      -- Initial occupation of symmetries is determined from user input.                      
      -- Initial occupation of symmetries is :
@    Occupied SCF orbitals              12 |    6    4    1    1

     Optimization information
     ========================
@    Number of configurations               666
@    Number of orbital rotations            266
     ------------------------------------------
@    Total number of variables              932

     Maximum number of macro iterations      40
     Maximum number of micro iterations     960
     Threshold for MCSCF gradient      1.00D-05
     Number of initial trial vectors          2
     Number of initial CI iterations         -1
     Number of simultaneous trial vectors     2

@    This calculation converges to state no.   2 for the specified symmetry and spin species.

     Maximum number of NEO/NR iterations  24


 ***********************************************
 ***** DIIS acceleration of SCF iterations *****
 ***********************************************

 C1-DIIS algorithm; max error vectors =    8

 Iter      Total energy        Error norm    Delta(E)  DIIS dim.
 -----------------------------------------------------------------------------

Calculating AOSUPINT

---> (Re)generating AOTWOINT


     ************************************************************************
     ************************** Output from HERINT **************************
     ************************************************************************


 Threshold for neglecting two-electron integrals:  1.00D-12
 HERMIT - Number of two-electron integrals written:      672537 ( 23.1% )
 HERMIT - Megabytes written:                              7.702

     (Precalculated AO two-electron integrals are transformed to P-supermatrix elements.
      Threshold for discarding integrals :  1.00D-12 )
@  1    -223.582328824        4.04374D+00   -2.24D+02    1
      Virial theorem: -V/T =      2.002837
@    MULPOP   OS      1.10; OP  _1 -0.55; OP  _2 -0.55; 
   1  Level shift: doubly occupied orbital energies shifted by -2.00D-01
 -----------------------------------------------------------------------------
@  2    -224.050487359        2.42053D+00   -4.68D-01    2
      Virial theorem: -V/T =      1.997167
@    MULPOP   OS     -0.22; OP  _1  0.11; OP  _2  0.11; 
   2  Level shift: doubly occupied orbital energies shifted by -2.00D-01
 -----------------------------------------------------------------------------
@  3    -224.284451527        2.56985D-01   -2.34D-01    3
      Virial theorem: -V/T =      2.001867
@    MULPOP   OS      0.33; OP  _1 -0.16; OP  _2 -0.16; 
   3  Level shift: doubly occupied orbital energies shifted by -5.00D-02
 -----------------------------------------------------------------------------
@  4    -224.289656288        7.34978D-02   -5.20D-03    4
      Virial theorem: -V/T =      2.002736
@    MULPOP   OS      0.34; OP  _1 -0.17; OP  _2 -0.17; 
   4  Level shift: doubly occupied orbital energies shifted by -2.50D-02
 -----------------------------------------------------------------------------
@  5    -224.290346499        2.73795D-02   -6.90D-04    5
      Virial theorem: -V/T =      2.002239
@    MULPOP   OS      0.34; OP  _1 -0.17; OP  _2 -0.17; 
   5  Level shift: doubly occupied orbital energies shifted by -1.25D-02
 -----------------------------------------------------------------------------
@  6    -224.290463267        1.09382D-02   -1.17D-04    6
      Virial theorem: -V/T =      2.002338
@    MULPOP   OS      0.34; OP  _1 -0.17; OP  _2 -0.17; 
 -----------------------------------------------------------------------------
@  7    -224.290494389        4.43785D-03   -3.11D-05    7
      Virial theorem: -V/T =      2.002295
@    MULPOP   OS      0.34; OP  _1 -0.17; OP  _2 -0.17; 
 -----------------------------------------------------------------------------
@  8    -224.290499755        1.53401D-03   -5.37D-06    8
      Virial theorem: -V/T =      2.002299
@    MULPOP   OS      0.34; OP  _1 -0.17; OP  _2 -0.17; 
 -----------------------------------------------------------------------------
@  9    -224.290500233        2.28675D-04   -4.78D-07    8
      Virial theorem: -V/T =      2.002296
@    MULPOP   OS      0.34; OP  _1 -0.17; OP  _2 -0.17; 
 -----------------------------------------------------------------------------
@ 10    -224.290500243        5.04453D-05   -1.04D-08    8
      Virial theorem: -V/T =      2.002296
@    MULPOP   OS      0.34; OP  _1 -0.17; OP  _2 -0.17; 
 -----------------------------------------------------------------------------
@ 11    -224.290500244        9.51633D-06   -2.84D-10    8
      Virial theorem: -V/T =      2.002296
@    MULPOP   OS      0.34; OP  _1 -0.17; OP  _2 -0.17; 
 -----------------------------------------------------------------------------
@ 12    -224.290500244        4.04933D-06   -1.40D-11    8
      Virial theorem: -V/T =      2.002296
@    MULPOP   OS      0.34; OP  _1 -0.17; OP  _2 -0.17; 
 -----------------------------------------------------------------------------
@ 13    -224.290500244        1.36165D-06   -3.01D-12    8
      Virial theorem: -V/T =      2.002296
@    MULPOP   OS      0.34; OP  _1 -0.17; OP  _2 -0.17; 
 -----------------------------------------------------------------------------
@ 14    -224.290500244        4.31408D-07   -1.14D-13    8

@ *** DIIS converged in  14 iterations !
@     Converged SCF energy, gradient:   -224.290500243741    4.31D-07
    - total time used in SIRFCK :              0.00 seconds

 --- Writing SIRIFC interface file

--------------------------------------------------------------------------------


     .--------------------------------------------------.
     | HF-SCF KT IPs [a.u. & eV] from Koopmans' theorem |
     `--------------------------------------------------'


     HF-SCF KT symmetry 1 ( A1 ) in point group C2v -- 6 principal poles with pole strength 1

   ============  ============  ============  ============  ============
      20.928728     20.720218      1.762816      1.100019      0.837407
     569.499656    563.825800     47.968663     29.933042     22.787012
   ============  ============  ============  ============  ============

   ============
       0.555785
      15.123677
   ============

     HF-SCF KT symmetry 2 ( B1 ) in point group C2v -- 4 principal poles with pole strength 1

   ============  ============  ============  ============
      20.720294      1.441606      0.805679      0.565386
     563.827874     39.228093     21.923646     15.384940
   ============  ============  ============  ============

     HF-SCF KT symmetry 3 ( B2 ) in point group C2v -- 1 principal poles with pole strength 1

   ============
       0.785678
      21.379389
   ============

     HF-SCF KT symmetry 4 ( A2 ) in point group C2v -- 1 principal poles with pole strength 1

   ============
       0.490393
      13.344260
   ============

@ Summary of HF-SCF KT ionization potentials [eV]:

@ Symmetry 1 (A1 ) :   569.500     563.826      47.969      29.933      22.787
@                       15.124

@ Symmetry 2 (B1 ) :   563.828      39.228      21.924      15.385

@ Symmetry 3 (B2 ) :    21.379

@ Symmetry 4 (A2 ) :    13.344

  === End of HF-SCF KT output ===
--------------------------------------------------------------------------------


 CPU and wall time for SCF :       0.133       0.133


 ----- Output from SIRIUS MP2 module -----

 Reference: H.J.Aa.Jensen, P.Jørgensen, H.Ågren, and J.Olsen,
            J. Chem. Phys. 88, 3834 (1988); 89, 5354 (1988)

 Checking that the closed shell orbitals are canonical Hartree-Fock orbitals

    Number of electrons  :   24
    Closed shell orbitals:    6    4    1    1

 Generating Fock matrix

 Hartree-Fock electronic energy:        -293.189688334520
 Hartree-Fock total      energy:        -224.290500243741

 Hartree-Fock orbital energies, symmetry 1 ( A1 ),    6 occupied SCF orbitals

       -20.92872789   -20.72021754    -1.76281600    -1.10001908    -0.83740731
        -0.55578492     0.12913201     0.15219434     0.21645185     0.27703579
         0.33083694     0.41393540     0.86547163     1.00530952     1.10806049
         1.22559206     1.27652648     1.29806861     1.50529480     1.85423682
         2.23533299     3.20808055     3.35695741     3.48934058     3.70924133
         3.91068412     4.34994051

 Hartree-Fock orbital energies, symmetry 2 ( B1 ),    4 occupied SCF orbitals

       -20.72029374    -1.44160595    -0.80567920    -0.56538614     0.12634724
         0.22629885     0.28964271     0.39158511     0.45833442     0.98680545
         1.04725242     1.21463458     1.27464439     1.41332967     1.75858145
         2.44224813     3.10080985     3.29956962     3.56030892     3.64014471
         4.29747342

 Hartree-Fock orbital energies, symmetry 3 ( B2 ),    1 occupied SCF orbitals

        -0.78567812    -0.04977784     0.18223872     0.24643307     0.80989623
         1.12759268     1.20300938     1.29436718     1.72053874     3.21285720
         3.50151003     3.76725043

 Hartree-Fock orbital energies, symmetry 4 ( A2 ),    1 occupied SCF orbitals

        -0.49039254     0.23554617     0.92850024     1.15092983     1.34353594
         1.64641567     3.09966295     3.55334147     3.95459746

    E(LUMO) :    -0.04977784   (in symmetry 3)
  - E(HOMO) :    -0.49039254   (in symmetry 4)
  --------------------------
    gap     :     0.44061470

 2-el. integral transformation level 5: Total CPU and WALL times (sec)       0.176       0.176

 MP2 move   0.472200 electrons to unoccupied HF orbitals


@   Hartree-Fock total energy   :          -224.2905002437
@   + MP2 contribution          :            -0.6734135718
@   = MP2 second order energy   :          -224.9639138155

 Natural orbital occupation numbers, symmetry 1 (irrep A1 )
 Sum =    12.00677322; RHF =    12.00000000; Difference =     0.00677322

         1.99991333     1.99990802     1.98808649     1.97709354     1.96801265
         1.94204089     0.06102152     0.02355406     0.01427069     0.00785282
         0.00696048     0.00574249     0.00435979     0.00258422     0.00218373
         0.00160800     0.00045918     0.00034999     0.00028375     0.00020521
         0.00016757     0.00009470     0.00008100     0.00003691     0.00001367
        -0.00000006    -0.00011142

 Natural orbital occupation numbers, symmetry 2 (irrep B1 )
 Sum =     7.97707589; RHF =     8.00000000; Difference =    -0.02292411

         1.99991313     1.98333251     1.96455253     1.92659390     0.05555409
         0.01702881     0.01015196     0.00663229     0.00471208     0.00350738
         0.00193599     0.00191767     0.00041126     0.00032463     0.00023476
         0.00018133     0.00013119     0.00005087     0.00002004     0.00000807
        -0.00011861

 Natural orbital occupation numbers, symmetry 3 (irrep B2 )
 Sum =     2.12989457; RHF =     2.00000000; Difference =     0.12989457

         1.93386519     0.17118154     0.01000405     0.00567660     0.00428048
         0.00273643     0.00116772     0.00046145     0.00022651     0.00015935
         0.00012649     0.00000875

 Natural orbital occupation numbers, symmetry 4 (irrep A2 )
 Sum =     1.88625632; RHF =     2.00000000; Difference =    -0.11374368

         1.86104840     0.01051553     0.00750153     0.00464138     0.00147214
         0.00042849     0.00032509     0.00020944     0.00011431

 Time used for MP2 natural orbitals :       0.193 CPU seconds,       0.193 wall seconds.

 CPU and wall time for MP2 :       0.193       0.193


        SIRIUS MCSCF optimization (SIROPT)
 ================================================



 ----- Output from SIRIUS CI module (CICTL) -----




 2-el. integral transformation level 0: Total CPU and WALL times (sec)       0.066       0.067

 (CIST1) 13 lowest diagonal elements:

 Element no. Config.no.    Active energy      Total energy

         1 :         37    -38.8529769095   -224.2770316710
         2 :        131    -38.4359975854   -223.8600523469
         3 :         69    -38.3787102361   -223.8027649975
         4 :         16    -38.3543639340   -223.7784186955
         5 :        196    -38.3221367077   -223.7461914691
         6 :        217    -38.1864454975   -223.6105002589
         7 :        154    -38.1608273133   -223.5848820747
         8 :         72    -38.1452946827   -223.5693494442
         9 :        157    -38.1218111729   -223.5458659344
        10 :        158    -38.0951933344   -223.5192480959
        11 :         66    -38.0802718272   -223.5043265887
        12 :        292    -38.0716740544   -223.4957288159
        13 :        293    -38.0716740544   -223.4957288159


 (CIST1) number of start vectors is increased from  6 to  8 because of (near) degeneracy
First 8 elements used as separate start vectors.


 Convergence threshold for CI optimization :     0.01000000


 The requested root number is now converged.


 *** CI converged in  7 iterations.



@ Final CI energies and residuals in symmetry 1 (irrep A1 )
@    1     -224.507474303438300       6.10D-02
@    2     -224.137977736907089       6.51D-03
@    3     -224.105971285021667       5.91D-02
@    4     -223.998476639790340       7.01D-02
@    5     -223.956501438265718       1.16D-01
@    6     -223.942421623725238       6.67D-02

   --- OUTPUT FROM SIRCNO     Keyword = ONLYFD



 --- MACRO ITERATION  1 ---
 --------------------------

 2-el. integral transformation level 3: Total CPU and WALL times (sec)       0.076       0.076

 Total MCSCF energy       :          -224.137977736906180  (MACRO    1)

 - Nuclear repulsion      :            68.899188090778793
 - Inactive energy        :          -254.323242852243936
 - Active energy          :           -38.713922975441037

 Norm of total gradient   :             0.796232335585
 -    of CI gradient      :             0.013029652185
 -    of orbital gradient :             0.796125718963


 *** Label "NATOCC  " not found on SIRIUS.RST in SIRPOP

 WARNING, occupation of active orbitals not available
          population analysis aborted.
          Use ".TRACI" option.


 Residual norm when dim(red L) =  11
 NEO root     CSF        orbital          total
    1     0.04968637     0.04054887     0.06413226 converged

 (NEONEX) NEO auxiliary root no.  1 is converged.

 Residual norm when dim(red L) =  15
 NEO root     CSF        orbital          total
    2     0.12517652     0.02646248     0.12794305 converged

 (NEONEX) NEO vector is converged.

   --- OUTPUT FROM SIRCNO     Keyword = FD+NO 


 Occupations of CAS natural orbitals:

 Symmetry  1 ( irrep A1  in C2v )

   1.964013690   1.863594904   0.099030719

 Symmetry  2 ( irrep B1  in C2v )

   1.973084967   1.921993148   0.071724569

 Symmetry  3 ( irrep B2  in C2v )

   1.753229138   1.593114414

 Symmetry  4 ( irrep A2  in C2v )

   0.760214453


 --- MACRO ITERATION  2 ---
 --------------------------

 2-el. integral transformation level 3: Total CPU and WALL times (sec)       0.076       0.075

 Total MCSCF energy       :          -224.218214824900826  (MACRO    2)

 - Nuclear repulsion      :            68.899188090778793
 - Inactive energy        :          -254.003509724051298
 - Active energy          :           -39.113893191628335

 Norm of total gradient   :             0.263238092012
 -    of CI gradient      :             0.148442069863
 -    of orbital gradient :             0.217391915629
      Virial theorem: -V/T =      1.998662
@    MULPOP   OS     -0.67; OP  _1  0.33; OP  _2  0.33; 

 Residual norm when dim(red L) =  10
 NEO root     CSF        orbital          total
    1     0.07135754     0.02242642     0.07479868 converged

 (NEONEX) NEO auxiliary root no.  1 is converged.

 (SIRNEO) iteration (  2,  9)
 Micro iteration termination criterion met, EVAL(ISTATE+1) = -2.78D-03

   --- OUTPUT FROM SIRCNO     Keyword = FD+NO 


 Occupations of CAS natural orbitals:

 Symmetry  1 ( irrep A1  in C2v )

   1.961499144   1.195354383   0.073322074

 Symmetry  2 ( irrep B1  in C2v )

   1.704683896   1.944885880   0.055657502

 Symmetry  3 ( irrep B2  in C2v )

   1.821867111   1.777841851

 Symmetry  4 ( irrep A2  in C2v )

   1.464888160


 --- MACRO ITERATION  3 ---
 --------------------------

 2-el. integral transformation level 3: Total CPU and WALL times (sec)       0.076       0.077

 Total MCSCF energy       :          -224.274831656295845  (MACRO    3)

 - Nuclear repulsion      :            68.899188090778793
 - Inactive energy        :          -254.042340089781419
 - Active energy          :           -39.131679657293233

 Norm of total gradient   :             0.318216027264
 -    of CI gradient      :             0.172025601668
 -    of orbital gradient :             0.267709978108
      Virial theorem: -V/T =      2.081291
@    MULPOP   OS     -0.86; OP  _1  0.43; OP  _2  0.43; 

 Residual norm when dim(red L) =  10
 NEO root     CSF        orbital          total
    1     0.07853128     0.01831406     0.08063849 converged

 (NEONEX) NEO auxiliary root no.  1 is converged.

 Residual norm when dim(red L) =  15
 NEO root     CSF        orbital          total
    2     0.04568957     0.01041986     0.04686268 converged

 (NEONEX) NEO vector is converged.

   --- OUTPUT FROM SIRCNO     Keyword = FD+NO 


 Occupations of CAS natural orbitals:

 Symmetry  1 ( irrep A1  in C2v )

   1.966650238   0.905140889   0.043973415

 Symmetry  2 ( irrep B1  in C2v )

   1.140278569   1.961197277   0.033423544

 Symmetry  3 ( irrep B2  in C2v )

   1.991441852   1.981762851

 Symmetry  4 ( irrep A2  in C2v )

   1.976131364


 --- MACRO ITERATION  4 ---
 --------------------------

 2-el. integral transformation level 3: Total CPU and WALL times (sec)       0.076       0.076

 Total MCSCF energy       :          -224.331830828774656  (MACRO    4)

 - Nuclear repulsion      :            68.899188090778793
 - Inactive energy        :          -253.880931589289105
 - Active energy          :           -39.350087330264358

 Norm of total gradient   :             0.392172114704
 -    of CI gradient      :             0.081198004315
 -    of orbital gradient :             0.383674147744
      Virial theorem: -V/T =      2.122446
@    MULPOP   OS     -0.95; OP  _1  0.48; OP  _2  0.48; 

 Residual norm when dim(red L) =   5
 NEO root     CSF        orbital          total
    2     0.07474186     0.02092543     0.07761585 converged

 (NEONEX) NEO vector is converged.

   --- OUTPUT FROM SIRCNO     Keyword = FD+NO 


 Occupations of CAS natural orbitals:

 Symmetry  1 ( irrep A1  in C2v )

   1.966713800   0.905227057   0.043844357

 Symmetry  2 ( irrep B1  in C2v )

   1.139753068   1.961275947   0.033289563

 Symmetry  3 ( irrep B2  in C2v )

   1.990950382   1.984515956

 Symmetry  4 ( irrep A2  in C2v )

   1.974429870


 --- MACRO ITERATION  5 ---
 --------------------------

 2-el. integral transformation level 3: Total CPU and WALL times (sec)       0.076       0.076

 Total MCSCF energy       :          -224.343728930761955  (MACRO    5)

 - Nuclear repulsion      :            68.899188090778793
 - Inactive energy        :          -253.828778373469220
 - Active energy          :           -39.414138648071535

 Norm of total gradient   :             0.073447252651
 -    of CI gradient      :             0.070005396589
 -    of orbital gradient :             0.022220336866
      Virial theorem: -V/T =      2.120947
@    MULPOP   OS     -0.98; OP  _1  0.49; OP  _2  0.49; 

 Residual norm when dim(red L) =  10
 NEO root     CSF        orbital          total
    1     0.03988725     0.03315591     0.05186816 converged

 (NEONEX) NEO auxiliary root no.  1 is converged.

 Residual norm when dim(red L) =  15
 NEO root     CSF        orbital          total
    2     0.01035218     0.00609439     0.01201287 converged

 (NEONEX) NEO vector is converged.

   --- OUTPUT FROM SIRCNO     Keyword = FD+NO 


 Occupations of CAS natural orbitals:

 Symmetry  1 ( irrep A1  in C2v )

   1.967544780   0.948855401   0.040758551

 Symmetry  2 ( irrep B1  in C2v )

   1.053143644   1.964249601   0.030208326

 Symmetry  3 ( irrep B2  in C2v )

   1.999414355   1.996900094

 Symmetry  4 ( irrep A2  in C2v )

   1.998925247


 --- MACRO ITERATION  6 ---
 --------------------------

 2-el. integral transformation level 3: Total CPU and WALL times (sec)       0.076       0.076

 Total MCSCF energy       :          -224.347644585876083  (MACRO    6)

 - Nuclear repulsion      :            68.899188090778793
 - Inactive energy        :          -253.625277284459173
 - Active energy          :           -39.621555392195702

 Norm of total gradient   :             0.016602460334
 -    of CI gradient      :             0.012142269875
 -    of orbital gradient :             0.011322851736
      Virial theorem: -V/T =      2.113650
@    MULPOP   OS     -1.01; OP  _1  0.51; OP  _2  0.51; 

 Residual norm when dim(red L) =   6
 NEO root     CSF        orbital          total
    1     0.05511494     0.03941564     0.06775876 converged

 (NEONEX) NEO auxiliary root no.  1 is converged.

 Residual norm when dim(red L) =  18
 NEO root     CSF        orbital          total
    2     0.00062350     0.00034384     0.00071202 converged

 (NEONEX) NEO vector is converged.

   --- OUTPUT FROM SIRCNO     Keyword = FD+NO 


 Occupations of CAS natural orbitals:

 Symmetry  1 ( irrep A1  in C2v )

   1.967522214   0.966182923   0.040838335

 Symmetry  2 ( irrep B1  in C2v )

   1.035842477   1.964275482   0.030305902

 Symmetry  3 ( irrep B2  in C2v )

   1.999348765   1.996850370

 Symmetry  4 ( irrep A2  in C2v )

   1.998833531


 --- MACRO ITERATION  7 ---
 --------------------------

 2-el. integral transformation level 3: Total CPU and WALL times (sec)       0.075       0.075

 Total MCSCF energy       :          -224.347735318687029  (MACRO    7)

 - Nuclear repulsion      :            68.899188090778793
 - Inactive energy        :          -253.640081535817586
 - Active energy          :           -39.606841873648214

 Norm of total gradient   :             0.000771653028
 -    of CI gradient      :             0.000638353173
 -    of orbital gradient :             0.000433536184
      Virial theorem: -V/T =      2.111440
@    MULPOP   OS     -1.01; OP  _1  0.50; OP  _2  0.50; 

 Residual norm when dim(red L) =   6
 NEO root     CSF        orbital          total
    1     0.04267956     0.00830866     0.04348079 converged

 (NEONEX) NEO auxiliary root no.  1 is converged.

 Residual norm when dim(red L) =  24
 NEO root     CSF        orbital          total
    2     0.00000609     0.00000302     0.00000680 converged

 (NEONEX) NEO vector is converged.

   --- OUTPUT FROM SIRCNO     Keyword = FD+NO 


 Occupations of CAS natural orbitals:

 Symmetry  1 ( irrep A1  in C2v )

   1.967538638   0.966679627   0.040822070

 Symmetry  2 ( irrep B1  in C2v )

   1.035345082   1.964294938   0.030287482

 Symmetry  3 ( irrep B2  in C2v )

   1.999348205   1.996851257

 Symmetry  4 ( irrep A2  in C2v )

   1.998832699


 --- MACRO ITERATION  8 ---
 --------------------------

 2-el. integral transformation level 3: Total CPU and WALL times (sec)       0.076       0.076

 Total MCSCF energy       :          -224.347735417490185  (MACRO    8)

 - Nuclear repulsion      :            68.899188090778793
 - Inactive energy        :          -253.639554115917207
 - Active energy          :           -39.607369392351750

 Norm of total gradient   :             0.000006805828
 -    of CI gradient      :             0.000006098233
 -    of orbital gradient :             0.000003021731
      Virial theorem: -V/T =      2.111368
@    MULPOP   OS     -1.01; OP  _1  0.50; OP  _2  0.50; 

 *** Optimization control: MCSCF converged ***
     Number of macro iterations used            8
     Number of micro iterations used           72
     Total number of CPU seconds used         1.26
     Total WALL time used (seconds)           1.26

--------------------------------------------------------------------------------


     .---------------------------------------------------------------.
     | MCSCF EKT IPs [a.u. & eV], pole strengths, and Dyson orbitals |
     `---------------------------------------------------------------'


     MCSCF EKT symmetry 1 ( A1 ) in point group C2v -- 6 principal poles

   ============  ============  ============  ============  ============
      20.711594     20.694704      1.686357      1.064504      0.803078
     563.591138    563.131540     45.888102     28.966639     21.852853
   ------------  ------------  ------------  ------------  ------------
       1.000000      1.000000      0.858353      0.997451      0.808233
   ============  ============  ============  ============  ============
       1.000000      0.000404     -0.000169      0.000040     -0.000210
       0.000404     -0.999998     -0.000613      0.000361     -0.001153
       0.000005     -0.000037      0.820345      0.184380     -0.356966
       0.000001     -0.000008      0.078230     -0.961393     -0.175738
       0.000238     -0.001758      0.419950     -0.194168      0.692302
       0.000044      0.000061     -0.004234      0.038337      0.413049
       0.000024      0.000064      0.053762      0.002725      0.005570
   ============  ============  ============  ============  ============

   ============  ============
       0.625481      1.815797
      17.020210     49.410344
   ------------  ------------
       0.661824      0.161660
   ============  ============
      -0.000073     -0.000104
      -0.000923      0.000814
      -0.261929     -0.311459
      -0.196737      0.003780
       0.493244     -0.217105
      -0.557844      0.007276
       0.005626      0.132101
   ============  ============

     MCSCF EKT symmetry 2 ( B1 ) in point group C2v -- 4 principal poles

   ============  ============  ============  ============  ============
      20.711619      1.415157      0.800148      0.660124      1.833686
     563.591833     38.508372     21.773133     17.962876     49.897146
   ------------  ------------  ------------  ------------  ------------
       1.000000      0.981749      0.947452      0.556029      0.029733
   ============  ============  ============  ============  ============
       1.000000     -0.000249      0.000457      0.000031     -0.000080
       0.000006      0.884471      0.442451      0.109628     -0.099647
       0.000076      0.016448     -0.205398      0.689315     -0.007645
      -0.000499     -0.446059      0.842315      0.262402      0.069485
       0.000015      0.014871     -0.002298      0.000315      0.122136
   ============  ============  ============  ============  ============

     MCSCF EKT symmetry 3 ( B2 ) in point group C2v -- 2 principal poles

   ============  ============
       0.797275      0.432189
      21.694946     11.760474
   ------------  ------------
       0.999645      0.998455
   ============  ============
       0.988039      0.153145
       0.153049     -0.987422
   ============  ============

     MCSCF EKT symmetry 4 ( A2 ) in point group C2v -- 1 principal poles

   ============
       0.611918
      16.651139
   ------------
       0.999416
   ============
       0.999708
   ============

@ Summary of MCSCF EKT ionization potentials [eV] and pole strengths:

@ Symmetry 1 (A1 ) :   563.591     563.132      45.888      28.967      21.853
@                       17.020      49.410
@ Pole strengths   :     1.000       1.000       0.858       0.997       0.808
@                        0.662       0.162

@ Symmetry 2 (B1 ) :   563.592      38.508      21.773      17.963      49.897
@ Pole strengths   :     1.000       0.982       0.947       0.556       0.030

@ Symmetry 3 (B2 ) :    21.695      11.760
@ Pole strengths   :     1.000       0.998

@ Symmetry 4 (A2 ) :    16.651
@ Pole strengths   :     0.999

  === End of MCSCF EKT output ===
--------------------------------------------------------------------------------


 CPU and wall time for MCSCF :       1.258       1.258


                     .----------------------------------------.
                     | --- SIRIUS OPTIMIZATION STATISTICS --- |
                     `----------------------------------------'


 
     Date and time (Linux)  : Mon Aug  1 14:11:52 2022
     Host name              : adm-110765.pc.sdu.dk                    


  ITER ITMIC     EMCSCF           GRDNRM        RATIO      STPLNG
 ---------------------------------------------------------------------
    1    9   -224.137977736906   0.7962323356  0.000000   0.6675189101
    2    9   -224.218214824901   0.2632380920  0.721199   0.7462940701
    3    9   -224.274831656296   0.3182160273  0.669555   0.7604347455
    4    2   -224.331830828775   0.3921721147  0.494360   0.1141097758
    5    9   -224.343728930762   0.0734472527  0.992203   0.1853434260
    6   14   -224.347644585876   0.0166024603  0.935624   0.0219658860
    7   20   -224.347735318687   0.0007716530  1.000026   0.0005471107
    8    0   -224.347735417490   0.0000068058  0.999991   0.0000000000


  ITER  INDGCM  GCIMAX      GCINRM     INDGOM  GOBMAX      GOBNRM      GRDNRM
 ------------------------------------------------------------------------------
    1    138    0.002393    0.013030    254    0.388456    0.796126    0.796232
    2    131   -0.041446    0.148442    254   -0.103710    0.217392    0.263238
    3     69   -0.076442    0.172026      5    0.136784    0.267710    0.318216
    4    196   -0.041951    0.081198      5   -0.232762    0.383674    0.392172
    5     16   -0.024021    0.070005      5    0.013646    0.022220    0.073447
    6    138    0.002998    0.012142    123   -0.004118    0.011323    0.016602
    7    526    0.000150    0.000638    123    0.000125    0.000434    0.000772
    8     58    0.000001    0.000006    217   -0.000001    0.000003    0.000007


  ITER ITMIC NCLIN NOLIN   TIMMAC    TIMITR    TIMMIC    TIMLIN    TIMMIC/ITMIC
 ------------------------------------------------------------------------------

    1     9     8     6      0.15      0.08      0.07      0.06      0.01
    2     9    10     4      0.15      0.08      0.07      0.06      0.01
    3     9     9     5      0.15      0.08      0.07      0.06      0.01
    4     2     1     3      0.10      0.08      0.02      0.02      0.01
    5     9    10     4      0.15      0.08      0.07      0.06      0.01
    6    14    12     5      0.17      0.08      0.08      0.08      0.01
    7    20    15     8      0.20      0.08      0.12      0.11      0.01
    8     0     0     0      0.08      0.08      0.00      0.00


 ITER         EMY                 EACTIV              EMCSCF

    1   -254.323242852244    -38.713922975441   -224.137977736906
    2   -254.003509724051    -39.113893191628   -224.218214824901
    3   -254.042340089781    -39.131679657293   -224.274831656296
    4   -253.880931589289    -39.350087330264   -224.331830828775
    5   -253.828778373469    -39.414138648072   -224.343728930762
    6   -253.625277284459    -39.621555392196   -224.347644585876
    7   -253.640081535818    -39.606841873648   -224.347735318687
    8   -253.639554115917    -39.607369392352   -224.347735417490


 ITER         DEPRED              DEACT               RATIO

    1      0.000000000000      0.000000000000      0.000000000000
    2     -0.111255105077     -0.080237087995      0.721199157008
    3     -0.084558911460     -0.056616831395      0.669554875026
    4     -0.115298929319     -0.056999172479      0.494359946059
    5     -0.011991601664     -0.011898101987      0.992202903391
    6     -0.004185073659     -0.003915655114      0.935623941848
    7     -0.000090730466     -0.000090732811      1.000025848157
    8     -0.000000098804     -0.000000098803      0.999991291930


 ITER    BETA           GAMMA             STPLNG              RTRUST

    1      0.40000000  1.00000000      0.667518910053      0.700000000000
    2      2.00000000  1.00000000      0.746294070130      0.700000000000
    3      1.40000000  1.00000000      0.760434745501      0.700000000000
    4      0.20000000  1.00000000      0.114109775759      0.469000000000
    5      0.20000000  1.00000000      0.185343426048      0.675360000000
    6      0.20000000  1.00000000      0.021965886030      0.700000000000
    7      0.20000000  1.00000000      0.000547110656      0.700000000000
    8      0.00000000  0.00000000      0.000000000000      0.700000000000


 Reduced L root no.  1
 ITER         EVAL              EVEC(1)           EVEC(2)           EVEC(3)
 ----------------------------------------------------------------------------
    1   -0.845871974961    0.029876412613    0.986458069058   -0.065996835873
    2   -0.614827739206   -0.089324958807    0.768281784005    0.618993962069
    3   -0.484863826198   -0.014772610374    0.651522449900    0.753029565269
    4   -0.319271710396   -0.003024740182    0.999511608272   -0.012018644715
    5   -0.298104338309   -0.001320428831   -0.010071104424    0.998353888192
    6   -0.281619244770   -0.000798614716    0.146016770587    0.988761437904
    7   -0.284758954856   -0.000008850909    0.160208812004    0.986951491901
    8    0.000000000000    0.000000000000    0.000000000000    0.000000000000


 Reduced L root no.  2
 ITER         EVAL              EVEC(1)           EVEC(2)           EVEC(3)
 ----------------------------------------------------------------------------
    1   -0.033232395172    0.966152892591   -0.043354144560   -0.188178021935
    2   -0.209575325314   -0.556602803152    0.234501145372   -0.372897441810
    3   -0.211855999858   -0.684643853015    0.462341640897   -0.418317101463
    4   -0.000958828735    0.999739680866    0.002710300746   -0.022273182493
    5   -0.000334346471    0.999313663522   -0.031446459313    0.000677255469
    6   -0.000007258297    0.999990350137   -0.002708347245    0.001133605395
    7   -0.000000007904    0.999999994013   -0.000068888278    0.000019827414
    8    0.000000000000    0.000000000000    0.000000000000    0.000000000000


                       .-----------------------------------.
                       | --- Final results from SIRIUS --- |
                       `-----------------------------------'


@    Spin multiplicity:           1
@    Spatial symmetry:            1 ( irrep  A1  in C2v )
@    Total charge of molecule:    0

@    This was an MCSCF calculation.
@    State number:                2

@    Final MCSCF energy:         -224.347735417490                 
@    Nuclear repulsion:            68.899188090779
@    Electronic energy:          -293.246923508269

@    Final gradient norm:           0.000006805828

 
     Date and time (Linux)  : Mon Aug  1 14:11:52 2022
     Host name              : adm-110765.pc.sdu.dk                    

 Occupancies of natural orbitals
 -------------------------------

 Symmetry 1  ( A1 ) -- Total occupation in this symmetry is  10.975040336

   2.000000000   2.000000000   2.000000000   2.000000000   1.967538638
   0.966679627   0.040822070

  Effective numbers of unpaired electrons this symmetry Eqs. 1) and 2):  1.14  1.01

 Symmetry 2  ( B1 ) -- Total occupation in this symmetry is   7.029927502

   2.000000000   2.000000000   1.035345082   1.964294938   0.030287482

  Effective numbers of unpaired electrons this symmetry Eqs. 1) and 2):  1.13  1.01

 Symmetry 3  ( B2 ) -- Total occupation in this symmetry is   3.996199462

   1.999348205   1.996851257

  Effective numbers of unpaired electrons this symmetry Eqs. 1) and 2):  0.01  0.00

 Symmetry 4  ( A2 ) -- Total occupation in this symmetry is   1.998832699

   1.998832699

  Effective numbers of unpaired electrons this symmetry Eqs. 1) and 2):  0.00  0.00

  Total effective number of unpaired electrons :
  Eq. 1) sum(i) [(2 - n_i) n_i]    =  2.2812
  Eq. 2) sum(i) [(2 - n_i) n_i]**2 =  2.0143
 (Reference: M. Head-Gordon, Chemical Physics Letters 372 (2003) 508–511)

File label for MO orbitals:   1Aug22   (CNOORB)

 (Only coefficients > 0.0100 are printed.)

 Molecular orbitals for symmetry species 1  (A1 )
 ------------------------------------------------

    Orbital         1        2        3        4        5        6        7
   1 OS  :1s     0.0207   1.0014  -0.0062  -0.0033  -0.0022  -0.0014  -0.0723
   2 OS  :1s    -0.0014   0.0063   0.5811   0.6837   0.2494   0.1158  -0.7534
   3 OS  :1s     0.0100  -0.0151  -0.0435   0.1788  -0.0917   0.1008   0.0340
   4 OS  :1s     0.0077  -0.0039  -0.0305   0.1476  -0.0441   0.1447  -0.1762
   5 OS  :2px    0.0002   0.0015  -0.1665  -0.3067   0.6858  -0.2628  -0.9265
   6 OS  :2px    0.0037  -0.0070  -0.0238   0.0628   0.0006  -0.0232   0.2819
   7 OS  :2px    0.0016  -0.0001  -0.0241   0.0054  -0.0032   0.0015  -0.0100
   8 OS  :3d0    0.0001   0.0001  -0.0074   0.0058  -0.0204   0.0101   0.0064
   9 OS  :3d2+   0.0001   0.0000  -0.0120  -0.0061   0.0074   0.0208  -0.0388
  10 OS  :3d0   -0.0007   0.0017  -0.0022  -0.0098  -0.0220   0.0060  -0.0076
  11 OS  :3d2+  -0.0003   0.0005  -0.0140  -0.0254   0.0374  -0.0021   0.0039
  12 OP  :1s     0.7077  -0.0153  -0.0012  -0.0003   0.0007  -0.0024   0.0134
  13 OP  :1s     0.0030  -0.0013   0.5149  -0.4691   0.0102  -0.0505   0.2580
  14 OP  :1s    -0.0070   0.0062  -0.0362  -0.0908  -0.0941   0.0064   0.0461
  15 OP  :1s    -0.0034   0.0022   0.0327  -0.0743  -0.0139  -0.0395   0.0804
  16 OP  :2px   -0.0009  -0.0000  -0.0301  -0.1105  -0.0717   0.6900  -0.2816
  17 OP  :2py   -0.0013   0.0004   0.0656  -0.0751  -0.4275  -0.1917  -0.6750
  18 OP  :2px    0.0024  -0.0015   0.0194   0.0522  -0.0065  -0.0173   0.0355
  19 OP  :2py    0.0044  -0.0035   0.0086   0.0592   0.0757   0.0069   0.0945
  20 OP  :2px    0.0002  -0.0004   0.0029   0.0095   0.0020   0.0203  -0.0120
  21 OP  :2py    0.0007  -0.0003  -0.0021   0.0113  -0.0028   0.0101  -0.0145
  22 OP  :3d2-   0.0001  -0.0002   0.0077   0.0097   0.0106  -0.0086   0.0097
  23 OP  :3d0    0.0002   0.0001  -0.0042  -0.0042  -0.0112   0.0025  -0.0035
  24 OP  :3d2+  -0.0000   0.0001   0.0006   0.0019  -0.0206  -0.0027  -0.0059
  25 OP  :3d2-  -0.0012   0.0006   0.0008  -0.0102   0.0132  -0.0117   0.0111

    Orbital         8        9       10       11       12       13       14
   1 OS  :1s    -0.0010   0.0201   0.0005   0.0339   0.0456   0.0043   0.0236
   2 OS  :1s     0.0679  -0.0466   0.0062   0.0507   0.3522  -0.0385   0.0835
   3 OS  :1s     0.1403  -0.4518   0.0065  -0.8432  -0.5415   0.0256  -0.7945
   4 OS  :1s     8.4450  -1.3490   3.8317  -2.2393 -18.7970   3.9507   2.7057
   5 OS  :2px   -0.0798   0.1153  -0.0200  -0.0111  -0.1143   0.1299   0.4019
   6 OS  :2px    0.2078  -0.0660   0.0382  -0.2135  -1.0674  -0.3401   0.2402
   7 OS  :2px    2.0938  -1.5298   1.6376   1.4928  -3.3490   1.1052   1.3960
   8 OS  :3d0    0.0054  -0.0031   0.0013   0.0225  -0.0166   0.0059  -0.0053
   9 OS  :3d2+  -0.0069   0.0101   0.0060   0.0029  -0.0148   0.0286  -0.0344
  10 OS  :3d0   -0.0857   0.0513  -0.0353   0.0052   0.2894  -0.2818  -0.5265
  11 OS  :3d2+  -0.0394  -0.0149  -0.0562   0.0529   0.2140  -0.0369   0.2512
  12 OP  :1s     0.0102   0.0007   0.0036   0.0112  -0.0474  -0.0357   0.0362
  13 OP  :1s    -0.0050  -0.1195   0.0129  -0.1101  -0.1930  -0.1808   0.1605
  14 OP  :1s    -0.1967  -0.1105  -0.0604  -0.3688   0.7821   0.1128  -0.5459
  15 OP  :1s    -4.0445   1.5836  -1.8038   1.4235   9.1602  -2.0003  -1.1240
  16 OP  :2px   -0.0692  -0.0663   0.0995  -0.0239  -0.0271  -0.0419   0.0239
  17 OP  :2py   -0.0095  -0.0641  -0.0895   0.0338  -0.0129   0.1685  -0.2636
  18 OP  :2px    0.0334  -0.0980   0.2021  -0.1379  -0.4574   0.1272  -0.1226
  19 OP  :2py    0.1956  -0.2124  -0.0625  -0.1165  -0.8055  -0.1071   0.4722
  20 OP  :2px    0.9651   0.4398  -0.4586  -1.1111  -1.2548   0.1460  -0.3193
  21 OP  :2py    1.5837   0.0347   1.3000  -0.6647  -2.3830   0.5707   0.1128
  22 OP  :3d2-   0.0068   0.0003   0.0004  -0.0154   0.0070   0.0055  -0.0014
  23 OP  :3d0    0.0002  -0.0028  -0.0004   0.0109  -0.0073   0.0021  -0.0005
  25 OP  :3d2-  -0.0453   0.0114  -0.0294   0.1136   0.1468  -0.4535   0.5389
  26 OP  :3d0    0.0263  -0.0114   0.0070  -0.0410  -0.1496  -0.3611  -0.2849
  27 OP  :3d2+   0.0335  -0.0303  -0.0041  -0.0316  -0.0709  -0.0226   0.4455

    Orbital        15       16       17
   1 OS  :1s     0.0110  -0.1416   0.1596
   2 OS  :1s     0.0376  -0.2913   0.2212
   3 OS  :1s     0.5256   2.8819  -5.6787
   4 OS  :1s     0.0233   9.0344  -9.4783
   5 OS  :2px    0.0037  -0.5048   0.0851
   6 OS  :2px    0.4818   1.7649  -3.1788
   7 OS  :2px   -0.3942   1.3836  -1.2173
   8 OS  :3d0    0.0025  -0.0281  -0.0033
   9 OS  :3d2+  -0.0104   0.0044   0.0189
  10 OS  :3d0    0.5784  -0.2524   1.3800
  11 OS  :3d2+  -0.2340  -1.2698   0.3750
  12 OP  :1s    -0.0210   0.0410  -0.0515
  13 OP  :1s    -0.1008  -0.0150   0.0834
  14 OP  :1s     0.2272  -1.4963   2.3682
  15 OP  :1s    -0.1122  -4.4657   4.8577
  16 OP  :2px    0.0221  -0.4998   0.0006
  17 OP  :2py    0.2735  -0.1415   0.0489
  18 OP  :2px    0.1052   1.9234  -1.2360
  19 OP  :2py   -0.3917   1.4122  -2.3666
  20 OP  :2px    0.1247   0.3896  -0.7129
  21 OP  :2py    0.3465   0.9643  -1.1689
  22 OP  :3d2-   0.0192  -0.0054  -0.0081
  23 OP  :3d0    0.0087   0.0072   0.0119
  24 OP  :3d2+  -0.0029   0.0187   0.0020
  25 OP  :3d2-  -0.2424  -0.4401   0.7951
  26 OP  :3d0   -0.0710  -0.1011  -0.9029
  27 OP  :3d2+   0.6226  -0.2383  -0.6160

 Molecular orbitals for symmetry species 2  (B1 )
 ------------------------------------------------

    Orbital         1        2        3        4        5        6        7
   1 OS  :2py    0.0001   0.0572  -0.0067  -0.6642  -1.1985   0.0038  -0.0257
   2 OS  :2py    0.0103  -0.1520  -0.0485   0.0997   0.3719  -0.4686  -0.0376
   3 OS  :2py    0.0008  -0.0203   0.0063   0.0173   0.0173  -3.2331  -0.3889
   4 OS  :3d2-  -0.0003   0.0145  -0.0179  -0.0357  -0.0539   0.0016  -0.0102
   5 OS  :3d2-   0.0026  -0.0303  -0.0109  -0.0280   0.0339  -0.1319   0.0442
   6 OP  :1s     0.7082  -0.0038  -0.0001   0.0033   0.0219   0.0011  -0.0007
   7 OP  :1s     0.0043   0.6856  -0.0279  -0.0404   0.3011   0.0870  -0.0032
   8 OP  :1s    -0.0115   0.0778   0.0178   0.0851  -0.0272   0.1262  -0.0414
   9 OP  :1s    -0.0025   0.0681  -0.0104   0.0175   0.0006   4.8062   0.4998
  10 OP  :2px   -0.0007   0.0644  -0.5964   0.2782  -0.4291   0.0016   0.1249
  11 OP  :2py   -0.0015   0.1051   0.4342   0.4283  -0.5531   0.0961  -0.0224
  12 OP  :2px    0.0040  -0.0337   0.0019  -0.0335   0.0938  -0.1552   0.1467
  13 OP  :2py    0.0067  -0.0573  -0.0098  -0.0318   0.1421  -0.2114  -0.0294
  14 OP  :2px    0.0002  -0.0030  -0.0100   0.0022   0.0026  -1.1241  -1.3418
  15 OP  :2py    0.0004  -0.0045   0.0150  -0.0024  -0.0023  -1.6738   0.0051
  16 OP  :3d2-   0.0001   0.0002   0.0021  -0.0217   0.0047  -0.0033  -0.0113
  17 OP  :3d0    0.0001   0.0003   0.0003   0.0123   0.0005   0.0060   0.0024
  18 OP  :3d2+  -0.0001  -0.0001   0.0109   0.0061  -0.0137   0.0046  -0.0035
  19 OP  :3d2-  -0.0017   0.0136   0.0126  -0.0174  -0.0109   0.0817   0.0279
  20 OP  :3d0    0.0013  -0.0077   0.0019   0.0169   0.0055  -0.0689  -0.0098
  21 OP  :3d2+   0.0010  -0.0086   0.0180   0.0107   0.0044  -0.0538   0.0183

    Orbital         8        9       10       11       12       13       14
   1 OS  :2py    0.0584   0.0339   0.3202  -0.0811  -0.1064   0.2807  -0.5866
   2 OS  :2py    0.0256  -2.4682  -1.9580  -0.5470   1.4436  -9.2949  -2.4261
   3 OS  :2py   -5.8085  -6.2141   1.0140  -0.6870  -0.3135  -4.0999  -1.5371
   4 OS  :3d2-   0.0218  -0.0010   0.0050  -0.0075  -0.0152   0.0060   0.0356
   5 OS  :3d2-  -0.0740  -0.6863   0.0520  -0.7128   0.7462  -2.5116  -1.8251
   6 OP  :1s     0.0032  -0.0369  -0.0306  -0.0306   0.0243  -0.1133  -0.0072
   7 OP  :1s     0.0350  -0.3072  -0.0214  -0.1040   0.0165  -0.0119   0.1319
   8 OP  :1s     0.0661   0.6168   0.7187   0.9243  -1.0252   5.0459   2.0066
   9 OP  :1s     4.0009  11.2099   0.3923  -0.4234  -0.7337   8.5503   2.8008
  10 OP  :2px   -0.0053  -0.0054  -0.0996   0.1759  -0.5743   0.0306   0.1408
  11 OP  :2py   -0.0364  -0.1007   0.0354   0.2615   0.1465   0.3623  -0.2567
  12 OP  :2px    0.0112  -0.7951  -0.4543  -0.4017   1.2085  -2.8860  -0.9800
  13 OP  :2py   -0.1012  -1.3297  -0.6750  -0.7845   0.7289  -4.8831  -1.4852
  14 OP  :2px   -1.8603  -1.9908   0.0985  -0.0169  -0.5965  -1.3381  -0.4370
  15 OP  :2py    1.0875  -2.3036  -0.5800   0.7005   0.4879  -1.4804  -0.5236
  16 OP  :3d2-   0.0025  -0.0034   0.0040   0.0023  -0.0145   0.0075  -0.0240
  17 OP  :3d0   -0.0076   0.0100  -0.0082  -0.0176   0.0040  -0.0184   0.0109
  18 OP  :3d2+  -0.0148   0.0038  -0.0018  -0.0023  -0.0049  -0.0119   0.0213
  19 OP  :3d2-   0.0004   0.3566   0.5410  -0.0070   0.3153   1.2523   0.9240
  20 OP  :3d0    0.0236  -0.2182   0.1200   0.6444   0.1981  -0.8774  -0.3000
  21 OP  :3d2+   0.0231  -0.1898  -0.5054   0.0775   0.6476  -0.3280  -0.6152

    Orbital        15
   1 OS  :2py   -0.0626
   2 OS  :2py    0.1013
   3 OS  :2py    0.6364
   4 OS  :3d2-  -0.0470
   5 OS  :3d2-   1.2950
   6 OP  :1s    -0.0143
   7 OP  :1s    -0.0634
   8 OP  :1s    -0.6387
   9 OP  :1s    -1.0958
  10 OP  :2px    0.7009
  11 OP  :2py   -0.3168
  12 OP  :2px   -1.1927
  13 OP  :2py    1.3018
  14 OP  :2px    0.2705
  15 OP  :2py    0.1474
  19 OP  :3d2-   0.4406
  20 OP  :3d0    0.0947
  21 OP  :3d2+   0.8939

 Molecular orbitals for symmetry species 3  (B2 )
 ------------------------------------------------

    Orbital         1        2        3        4        5        6        7
   1 OS  :2pz    0.5529   0.8682  -0.0709  -0.1746   0.0489   0.0695   0.8399
   2 OS  :2pz   -0.0549   0.0611  -0.0870  -0.1937   0.1842   0.4923  -0.3517
   3 OS  :2pz   -0.0173   0.0934  -0.1632   2.8913  -0.5317   0.2084   1.0164
   4 OS  :3d1+   0.0195   0.0043  -0.0058  -0.0140  -0.0085  -0.0042  -0.0164
   5 OS  :3d1+   0.0112   0.0089  -0.0034   0.0304  -0.3165  -0.5016   1.0509
   6 OP  :2pz    0.5291  -0.4796  -0.1660   0.0489   0.0951  -0.2544  -0.2132
   7 OP  :2pz   -0.0291  -0.0507  -0.1498   0.0375  -0.0358   0.3965  -0.0599
   8 OP  :2pz    0.0200  -0.0680   0.7537  -1.4343   0.2625  -0.2972  -0.4794
   9 OP  :3d1-  -0.0153  -0.0085   0.0052  -0.0030  -0.0067   0.0066  -0.0281
  10 OP  :3d1+  -0.0083  -0.0060   0.0052  -0.0046   0.0072  -0.0114   0.0010
  11 OP  :3d1-  -0.0069   0.0047  -0.0033   0.0316   0.4178   0.2542   0.6850
  12 OP  :3d1+  -0.0028  -0.0032  -0.0096   0.0024  -0.3541   0.6687   0.1064

    Orbital         8        9       10       11       12
   1 OS  :2pz   -0.7512  -0.8828   0.0036  -0.0087   0.0702
   2 OS  :2pz    0.7803   3.4277  -0.0565   0.1544  -0.6958
   3 OS  :2pz   -0.2044  -0.3169   0.0424   0.1513  -0.3205
   4 OS  :3d1+  -0.0088  -0.0147  -0.7798   0.2022   0.8979
   5 OS  :3d1+   0.2459   1.3361   0.5264  -0.1684  -0.7628
   6 OP  :2pz   -0.8305   0.4227   0.0253   0.0186  -0.0297
   7 OP  :2pz    1.0090  -1.7412  -0.1145  -0.0416   0.3476
   8 OP  :2pz   -0.1728   0.1845   0.0048  -0.0973   0.1654
   9 OP  :3d1-   0.0032  -0.0431   0.5897   0.2151   0.5509
  10 OP  :3d1+   0.0040   0.0010   0.0777  -0.7889   0.2706
  11 OP  :3d1-   0.0759   1.0718  -0.2495  -0.0538  -0.5140
  12 OP  :3d1+  -0.1842   0.4475  -0.1277   0.4542  -0.2134

 Molecular orbitals for symmetry species 4  (A2 )
 ------------------------------------------------

    Orbital         1        2        3        4        5        6        7
   1 OS  :3d1-   0.0235  -0.0010   0.0135  -0.0255  -0.0073  -0.0374  -0.7983
   2 OS  :3d1-   0.0062  -0.0145   0.3812  -0.0941   0.7834   2.2810   0.6751
   3 OP  :2pz    0.7102  -0.1484  -0.0750  -0.2423  -0.8718   0.4258   0.0055
   4 OP  :2pz   -0.0051  -0.1693  -0.1131   0.3907   0.8444  -1.8161  -0.1887
   5 OP  :2pz    0.0300   1.2093   0.0076  -0.3773  -0.3940   0.1068   0.0355
   6 OP  :3d1-  -0.0092   0.0097  -0.0065   0.0017  -0.0121  -0.0205   0.4071
   7 OP  :3d1+  -0.0058   0.0021   0.0036   0.0078  -0.0125  -0.0334   0.4147
   8 OP  :3d1-  -0.0085  -0.0144  -0.0111   0.7765   0.0516   0.9370  -0.2534
   9 OP  :3d1+  -0.0031  -0.0045  -0.5733  -0.1530   0.3994   0.8892  -0.1214

    Orbital         8        9
   1 OS  :3d1-  -0.1189   0.9329
   2 OS  :3d1-   0.1780  -0.9937
   3 OP  :2pz   -0.0172  -0.0399
   4 OP  :2pz   -0.0262   0.4344
   5 OP  :2pz    0.0677   0.0849
   6 OP  :3d1-   0.5565   0.5115
   7 OP  :3d1+  -0.6268   0.3665
   8 OP  :3d1-  -0.3510  -0.4682
   9 OP  :3d1+   0.3735  -0.3851

 Printout of CI-coefficients abs greater than 0.10000 for root  2
 *** NOTE: this root is the reference state ***

 Printout of coefficients in interval  3.1623E-01 to  1.0000E+00
 ===============================================================

  Coefficient of CSF no.        69 is     -0.68120526   -6.81205261E-01
  Orbital          1   2   5   7   8   9
  Spin coupling    2   2   2   2   2   2

  Coefficient of CSF no.        72 is      0.70581040    7.05810399E-01
  Orbital          1   4   5   7   8   9
  Spin coupling    2   2   2   2   2   2

 Printout of coefficients in interval  1.0000E-01 to  3.1623E-01
 ===============================================================
   ( no coefficients )

 Norm of printed CI vector ..      0.96220893

 Magnitude of CI coefficients
 ============================
 ( Ranges are relative to norm of vector :  1.00E+00 )

  10- 1 to 10- 0         2    0.96220893E+00      0.9622089263
  10- 2 to 10- 1        36    0.36252756E-01      0.9984616821
  10- 3 to 10- 2        87    0.14836880E-02      0.9999453702
  10- 4 to 10- 3       272    0.54086894E-04      0.9999994571
  10- 5 to 10- 4       200    0.54103888E-06      0.9999999981
  10- 6 to 10- 5        58    0.18871871E-08      1.0000000000
  10- 7 to 10- 6        11    0.26182325E-11      1.0000000000
  Number of coefficients less than 10^-11 times norm is            0

  Total CPU  time used in SIRIUS :   1.59 seconds
  Total wall time used in SIRIUS :   1.59 seconds

 
     Date and time (Linux)  : Mon Aug  1 14:11:52 2022
     Host name              : adm-110765.pc.sdu.dk                    

 NOTE:    1 warnings have been issued.
 Check output, result, and error files for "WARNING".


                     .---------------------------------------.
                     | End of Wave Function Section (SIRIUS) |
                     `---------------------------------------'


 INFO  As this is an excited state optimization some default thresholds have been updated

 Restricted step control parameters
 ----------------------------------
 Initial trust radius   :    0.2500
 Trust radius increment :    1.1000
 Trust radius decrement :    0.7000
 Bad prediction ratio   :    0.8500
 Good prediction ratio  :    0.9000
 Rejection ratio, low   :    0.8000
[...]
  Diamagnetic contribution:      -15.9512  -1258.7170    -75.8017
  Paramagnetic contribution:      12.9093   1018.6813     61.3464
  1st anisotropy:                 -3.1169   -245.9545    -14.8117
  2nd anisotropy:                  1.5586    122.9921      7.4068



  Principal values (au, SI, and cgs) and axes:
  --------------------------------------------

  khi_aa      -2.0030   -158.0608     -9.5186      1.0000    0.0000    0.0000
  khi_bb      -2.0028   -158.0410     -9.5175      0.0000    1.0000    0.0000
  khi_cc      -5.1198   -404.0054    -24.3298      0.0000    0.0000    1.0000


                        Total magnetizability tensor (au)
                        ---------------------------------

                       Bx                  By                  Bz

  Bx        -2.003042190492     -0.000000000000     -0.000000000000
  By        -0.000000000000     -2.002791630614     -0.000000000000
  Bz        -0.000000000000     -0.000000000000     -5.119801272993



                     Diamagnetic magnetizability tensor (au)
                     ---------------------------------------

                       Bx                  By                  Bz

  Bx       -13.505733916083     -0.000000000000     -0.000000000000
  By        -0.000000000000    -13.505972580423     -0.000000000000
  Bz        -0.000000000000     -0.000000000000    -20.841970557395



                     Paramagnetic magnetizability tensor (au)
                     ----------------------------------------

                       Bx                  By                  Bz

  Bx        11.502691725591     -0.000000000000     -0.000000000000
  By        -0.000000000000     11.503180949808     -0.000000000000
  Bz        -0.000000000000     -0.000000000000     15.722169284402



 ****************************************************************************************
 ************************ ABACUS - MOLECULAR ROTATIONAL g-TENSOR ************************
 ****************************************************************************************


 London orbitals used.


 Principal moments of inertia (a.u.) and principal axes
 ------------------------------------------------------

   IA   61.759004          1.000000    0.000000    0.000000
   IB   61.761035          0.000000    1.000000    0.000000
   IC  123.520039          0.000000    0.000000    1.000000


  Molecular rotational g-factor
  -----------------------------

 Isotropic g-tensor       :      -0.16743546
 Nuclear contribution     :       0.50379835
 Electronic contribution  :      -0.55109845
 Parallel component:             -0.00904382
 Perpendicular component:        -0.24663128
 Anisotropy:                      0.23758746

 Molecular rotational g-tensor is cylindrical.


  Molecular rotational g-tensor in principal axis system (a.u.):
  --------------------------------------------------------------

   A           -0.24662766      0.00000000      0.00000000
   B            0.00000000     -0.24663490      0.00000000
   C            0.00000000      0.00000000     -0.00904382


  Nuclear contribution in principal axis system (a.u.):
  -----------------------------------------------------

   A            0.50379835      0.00000000      0.00000000
   B            0.00000000      0.50379835      0.00000000
   C            0.00000000      0.00000000      0.50379835


  Electronic contribution in principal axis system (a.u.):
  --------------------------------------------------------

   A           -0.63212790      0.00000000      0.00000000
   B            0.00000000     -0.63213513      0.00000000
   C            0.00000000      0.00000000     -0.38903233


  Diamagnetic contribution in principal axis system (a.u.):
  ---------------------------------------------------------

   A           -0.11829811      0.00000000      0.00000000
   B            0.00000000     -0.11829811      0.00000000
   C            0.00000000      0.00000000     -0.12380984


  ******************************************************************************
  ************************ ABACUS - CHEMICAL SHIELDINGS ************************
  ******************************************************************************



                 Shielding tensors in symmetry coordinates (ppm)
                 -----------------------------------------------


    Symmetry 2
                       Bz

        OS   z    55.14248648
        OP   z   110.24239173

    Symmetry 3
                       By

        OS   y   -97.11574627
        OP   x  -686.57497129
        OP   y -1383.51537831

    Symmetry 4
                       Bx

        OS   x  -889.95727231
        OP   x  -590.43981140
        OP   y  -686.66142509




  Chemical shielding for OS    :
  ==============================


  Shielding constant:   -310.6435 ppm
  Anisotropy:           -868.9706 ppm
  Asymmetry:               0.2628    

  S parameter:           878.9180 ppm
  A parameter:             0.0000 ppm


  Total shielding tensor (ppm):
  -----------------------------

                    Bx             By             Bz

  OS     x  -889.95727231     0.00000000     0.00000000
  OS     y     0.00000000   -97.11574627     0.00000000
  OS     z     0.00000000     0.00000000    55.14248648


  Diamagnetic and paramagnetic contributions (ppm):
  -------------------------------------------------

                 Bx         By         Bz            Bx         By         Bz

  OS     x   438.2804     0.0000     0.0000    -1328.2377     0.0000     0.0000
  OS     y     0.0000   451.2960     0.0000        0.0000  -548.4117     0.0000
  OS     z     0.0000     0.0000   470.1832        0.0000     0.0000  -415.0407

  Diamagnetic contribution:    453.253194         Paramagnetic:    -763.896705


  Antisymmetric and traceless symmetric parts (ppm):
  --------------------------------------------------

                 Bx         By         Bz            Bx         By         Bz

  OS     x     0.0000     0.0000     0.0000     -579.3138     0.0000     0.0000
  OS     y     0.0000     0.0000     0.0000        0.0000   213.5278     0.0000
  OS     z     0.0000     0.0000     0.0000        0.0000     0.0000   365.7860


  Principal values and axes:
  --------------------------

  OS         55.142486  = -310.64  + 365.79:     0.000000  0.000000  1.000000
  OS        -97.115746  = -310.64  + 213.53:     0.000000  1.000000  0.000000
  OS       -889.957272  = -310.64  - 579.31:     1.000000  0.000000  0.000000


  Chemical shielding for OP  _1:
  ==============================


  Shielding constant:   -310.6188 ppm
  Anisotropy:           -868.9783 ppm
  Asymmetry:               0.2627    

  S parameter:           878.9130 ppm
  A parameter:             0.0216 ppm


  Total shielding tensor (ppm):
  -----------------------------

                    Bx             By             Bz

  OP  _1 x  -295.21990570  -343.28748564     0.00000000
  OP  _1 y  -343.33071254  -691.75768915     0.00000000
  OP  _1 z     0.00000000     0.00000000    55.12119587


  Diamagnetic and paramagnetic contributions (ppm):
  -------------------------------------------------

                 Bx         By         Bz            Bx         By         Bz

  OP  _1 x   448.0427    -5.6354     0.0000     -743.2626  -337.6521     0.0000
  OP  _1 y    -5.6354   441.5351     0.0000     -337.6953 -1133.2928     0.0000
  OP  _1 z     0.0000     0.0000   470.1838        0.0000     0.0000  -415.0626

  Diamagnetic contribution:    453.253855         Paramagnetic:    -763.872655


  Antisymmetric and traceless symmetric parts (ppm):
  --------------------------------------------------

                 Bx         By         Bz            Bx         By         Bz

  OP  _1 x     0.0000     0.0216     0.0000       15.3989  -343.3091     0.0000
  OP  _1 y    -0.0216     0.0000     0.0000     -343.3091  -381.1389     0.0000
  OP  _1 z     0.0000     0.0000     0.0000        0.0000     0.0000   365.7400


  Principal values and axes:
  --------------------------

  OP  _1     55.121196  = -310.62  + 365.74:     0.000000  0.000000  1.000000
  OP  _1    -97.039947  = -310.62  + 213.58:     0.866058 -0.499944  0.000000
  OP  _1   -889.937648  = -310.62  - 579.32:     0.499944  0.866058  0.000000


  Chemical shielding for OP  _2:
  ==============================


  Shielding constant:   -310.6188 ppm
  Anisotropy:           -868.9783 ppm
  Asymmetry:               0.2627    

  S parameter:           878.9130 ppm
  A parameter:             0.0216 ppm


  Total shielding tensor (ppm):
  -----------------------------

                    Bx             By             Bz

  OP  _2 x  -295.21990570   343.28748564     0.00000000
  OP  _2 y   343.33071254  -691.75768915     0.00000000
  OP  _2 z     0.00000000     0.00000000    55.12119587


  Diamagnetic and paramagnetic contributions (ppm):
  -------------------------------------------------

                 Bx         By         Bz            Bx         By         Bz

  OP  _2 x   448.0427     5.6354     0.0000     -743.2626   337.6521     0.0000
  OP  _2 y     5.6354   441.5351     0.0000      337.6953 -1133.2928     0.0000
  OP  _2 z     0.0000     0.0000   470.1838        0.0000     0.0000  -415.0626

  Diamagnetic contribution:    453.253855         Paramagnetic:    -763.872655


  Antisymmetric and traceless symmetric parts (ppm):
  --------------------------------------------------

                 Bx         By         Bz            Bx         By         Bz

  OP  _2 x     0.0000    -0.0216     0.0000       15.3989   343.3091     0.0000
  OP  _2 y     0.0216     0.0000     0.0000      343.3091  -381.1389     0.0000
  OP  _2 z     0.0000     0.0000     0.0000        0.0000     0.0000   365.7400


  Principal values and axes:
  --------------------------

  OP  _2     55.121196  = -310.62  + 365.74:     0.000000  0.000000  1.000000
  OP  _2    -97.039947  = -310.62  + 213.58:     0.866058  0.499944  0.000000
  OP  _2   -889.937648  = -310.62  - 579.32:    -0.499944  0.866058  0.000000


                         +--------------------------------+
                         ! Summary of chemical shieldings !
                         +--------------------------------+

@1  Definitions from J. Mason, Solid state Nuc. Magn. Res. 2 (1993), 285

@1 London orbitals (GIAOs) has been used.

@1 atom   shielding       dia      para     skew      span     (aniso     asym)
@1 ----------------------------------------------------------------------------
@1 OS     -310.6435  453.2532 -763.8967   -0.6778  945.0998  548.6790    2.1675
@1 OP  _1 -310.6188  453.2539 -763.8727   -0.6780  945.0588  548.6100    2.1679
@1 OP  _2 -310.6188  453.2539 -763.8727   -0.6780  945.0588  548.6100    2.1679



                         +--------------------------------+
                         ! Summary of chemical shieldings !
                         +--------------------------------+

@2  Definitions from Smith, Palke, and Grieg, Concepts in Mag. Res. 4 (1992), 107

@2 London orbitals (GIAOs) has been used.

@2 atom   shielding       dia      para     aniso      asym        S        A
@2 ----------------------------------------------------------------------------
@2 OS     -310.6435  453.2532 -763.8967 -868.9706    0.2628  878.9180    0.0000
@2 OP  _1 -310.6188  453.2539 -763.8727 -868.9783    0.2627  878.9130    0.0216
@2 OP  _2 -310.6188  453.2539 -763.8727 -868.9783    0.2627  878.9130    0.0216



   Interatomic separations (in Angstrom):
   --------------------------------------

            OS          OP  _1      OP  _2
            ------      ------      ------
 OS    :    0.000000
 OP  _1:    1.470553    0.000000
 OP  _2:    1.470553    1.470535    0.000000


  Max    interatomic separation is    1.4706 Angstrom (    2.7789 Bohr)
  between atoms    2 and    1, "OP  _1" and "OS    ".

  Min YX interatomic separation is    1.4705 Angstrom (    2.7789 Bohr)


  Bond distances (Angstrom):
  --------------------------

                  atom 1     atom 2       distance
                  ------     ------       --------
  bond distance:  OP  _1     OS           1.470553
  bond distance:  OP  _2     OS           1.470553
  bond distance:  OP  _2     OP  _1       1.470535


  Bond angles (degrees):
  ----------------------

                  atom 1     atom 2     atom 3         angle
                  ------     ------     ------         -----
  bond angle:     OP  _1     OS         OP  _2        59.999
  bond angle:     OS         OP  _1     OP  _2        60.000
  bond angle:     OS         OP  _2     OP  _1        60.000




   ****************************************************************************
   *************** ABACUS - ROTATIONAL AND VIBRATIONAL ANALYSIS ***************
   ****************************************************************************


 Norm of (unprojected) molecular gradient (au) :     0.00000767


 Conversion factors used:

    Hartree to (cm)-1      : 219474.62934
    a.m.u.  to a.u.        :   1822.88848
    Bohr    to Angstrom    :  0.529177211
    a.u.    to A**4amu-1   :   142.943572
    a.u.    to km (mol)-1  :      974.864


 Vibrational analysis for parent molecule only.
  Norm of projected gradient     0.000008


                         Isotopic Molecule No. 1
                         ======================= 


                                 Isotopic Masses
                                 ---------------

                           OS         15.994915
                           OP  _1     15.994915
                           OP  _2     15.994915

                       Total mass:    47.984745 amu
                       Natural abundance:  99.282 %

 Center-of-mass coordinates (a.u.):    0.842300    0.000000    0.000000
 Center-of-mass coordinates (Angs):    0.445726    0.000000    0.000000


 Principal moments of inertia (u*A**2) and principal axes
 --------------------------------------------------------

   IA      17.294283          1.000000    0.000000    0.000000
   IB      17.294851          0.000000    1.000000    0.000000
   IC      34.589134          0.000000    0.000000    1.000000


 Rotational constants
 --------------------

@    The molecule is planar.

               A                   B                   C

          29222.3169          29221.3560          14610.9182 MHz
            0.974752            0.974720            0.487368 cm-1


  Vibrational Frequencies and IR Intensities
  ------------------------------------------

  mode   irrep        frequency             IR intensity
  ============================================================
                  cm-1       hartrees     km/mol   (D/A)**2/amu
  ------------------------------------------------------------
   1      A1      998.88    0.004551      0.000   0.0000
   2      A1      723.90    0.003298      1.748   0.0414

   3      B1      723.87    0.003298      1.748   0.0414



  Normal Coordinates (bohrs*amu**(1/2)):
  --------------------------------------


                1   999     2   724     3   724 
  ----------------------------------------------

    OS     x    0.144349    0.144372    0.000000
    OS     y   -0.000000   -0.000000    0.144359
    OS     z    0.000000    0.000000    0.000000

    OP  _1 x   -0.072175   -0.072186   -0.125021
    OP  _1 y   -0.125030    0.125010   -0.072180
    OP  _1 z    0.000000    0.000000    0.000000

    OP  _2 x   -0.072175   -0.072186    0.125021
    OP  _2 y    0.125030   -0.125010   -0.072180
    OP  _2 z    0.000000    0.000000    0.000000




  Dipole Gradient in Normal Coordinate Basis (D/(A*amu**(1/2)))
  -------------------------------------------------------------


  mode           dMA/dQi        dMB/dQi        dMC/dQi
  ----------------------------------------------------
   1            0.000019      -0.000000       0.000000
   2           -0.203384      -0.000000       0.000000
   3           -0.000000       0.203396       0.000000



                              Total Molecular Energy
                              ----------------------

             electronic     vibrational           total    energy 

            -224.461639        0.005574     -224.456066    Hartrees
           -49263635.11         1223.33    -49262411.78    cm-1
             -589323.94           14.63      -589309.31    kJ/mol
             -140851.80            3.50      -140848.31    kcal/mol


                          Molecular Partition Functions
                          -----------------------------

 Qtran is evaluated per mol at 1 atm. pressure.
 Qrot does not include symmetry numbers.
 Qvib does not include zero point energies
 (i.e., energy scale has vibrational ground state as zero).


 Temp.(K)  Translational     Rotational    Vibrational      Total

    50.00     1.5047D+05         536.10         1.0000   8.066556D+07
   100.00     8.5117D+05        1512.79         1.0001   1.287724D+09
   200.00     4.8150D+06        4273.82         1.0118   2.082129D+10
   273.15     1.0496D+07        6819.26         1.0511   7.523391D+10
   298.15     1.3065D+07        7776.01         1.0723   1.089421D+11
   300.00     1.3268D+07        7848.46         1.0741   1.118508D+11
   400.00     2.7238D+07       12081.14         1.1992   3.946090D+11
   500.00     4.7582D+07       16881.93         1.3829   1.110819D+12
   600.00     7.5058D+07       22190.14         1.6215   2.700679D+12
   700.00     1.1035D+08       27961.22         1.9143   5.906422D+12
   800.00     1.5408D+08       34160.63         2.2622   1.190701D+13
   900.00     2.0684D+08       40760.60         2.6674   2.248817D+13
  1000.00     2.6916D+08       47738.15         3.1326   4.025200D+13
  1500.00     7.4173D+08       87693.75         6.4740   4.211048D+14
  2000.00     1.5226D+09      135008.10        11.8402   2.433956D+15


                                +------------------+
                                ! Polarizabilities !
                                +------------------+


 Vibrational polarizabilities calculated acc. to Rinaldi et al.,
 Chem.Phys.Lett. 128 (1986) 177-181.


                        Vibrational Polarizabilities (au)
                        ---------------------------------

                         Ex          Ey          Ez

            Ex       0.090411   -0.000000    0.000000
            Ey      -0.000000    0.090429    0.000000
            Ez       0.000000    0.000000    0.000000



                   Vibrational Polarizabilities (angstroms**3)
                   -------------------------------------------

                         Ex          Ey          Ez

            Ex       0.013398   -0.000000    0.000000
            Ey      -0.000000    0.013400    0.000000
            Ez       0.000000    0.000000    0.000000



                   Vibrational Polarizabilities (angstroms**3)
                   -------------------------------------------

               (Along principal axes of moments of inertia)

                         EA          EB          EC

            EA       0.013398   -0.000000    0.000000
            EB      -0.000000    0.013400    0.000000
            EC       0.000000    0.000000    0.000000



 Vibrational mean polarization :    0.0226 cm**3 mol**-1


 CPU time statistics for ABACUS
 ------------------------------

 TWOTEX     00:00:01       8 %
 RHSIDE     00:00:08      50 %
 RESPON     00:00:06      35 %
 REST       00:00:01       9 %

 TOTAL      00:00:16     100 %


  Total CPU  time used in ABACUS:  16.18 seconds
  Total wall time used in ABACUS:   7.38 seconds


                   .-------------------------------------------.
                   | End of Static Property Section (ABACUS) - |
                   `-------------------------------------------'

  Total CPU  time used in DALTON:  1 minute  55 seconds
  Total wall time used in DALTON:  59.14 seconds

 
     Date and time (Linux)  : Mon Aug  1 14:12:49 2022
     Host name              : adm-110765.pc.sdu.dk                    
