

     ************************************************************************
     *************** Dalton - An Electronic Structure Program ***************
     ************************************************************************

    This is output from DALTON release Dalton2021.alpha (2020)
         ( Web site: http://daltonprogram.org )

   ----------------------------------------------------------------------------

    NOTE:
     
    Dalton is an experimental code for the evaluation of molecular
    properties using (MC)SCF, DFT, CI, and CC wave functions.
    The authors accept no responsibility for the performance of
    the code or for the correctness of the results.
     
    The code (in whole or part) is provided under a licence and
    is not to be reproduced for further distribution without
    the written permission of the authors or their representatives.
     
    See the home page "http://daltonprogram.org" for further information.
     
    If results obtained with this code are published,
    the appropriate citations would be both of:
     
       K. Aidas, C. Angeli, K. L. Bak, V. Bakken, R. Bast,
       L. Boman, O. Christiansen, R. Cimiraglia, S. Coriani,
       P. Dahle, E. K. Dalskov, U. Ekstroem,
       T. Enevoldsen, J. J. Eriksen, P. Ettenhuber, B. Fernandez,
       L. Ferrighi, H. Fliegl, L. Frediani, K. Hald, A. Halkier,
       C. Haettig, H. Heiberg, T. Helgaker, A. C. Hennum,
       H. Hettema, E. Hjertenaes, S. Hoest, I.-M. Hoeyvik,
       M. F. Iozzi, B. Jansik, H. J. Aa. Jensen, D. Jonsson,
       P. Joergensen, J. Kauczor, S. Kirpekar,
       T. Kjaergaard, W. Klopper, S. Knecht, R. Kobayashi, H. Koch,
       J. Kongsted, A. Krapp, K. Kristensen, A. Ligabue,
       O. B. Lutnaes, J. I. Melo, K. V. Mikkelsen, R. H. Myhre,
       C. Neiss, C. B. Nielsen, P. Norman, J. Olsen,
       J. M. H. Olsen, A. Osted, M. J. Packer, F. Pawlowski,
       T. B. Pedersen, P. F. Provasi, S. Reine, Z. Rinkevicius,
       T. A. Ruden, K. Ruud, V. Rybkin, P. Salek, C. C. M. Samson,
       A. Sanchez de Meras, T. Saue, S. P. A. Sauer,
       B. Schimmelpfennig, K. Sneskov, A. H. Steindal,
       K. O. Sylvester-Hvid, P. R. Taylor, A. M. Teale,
       E. I. Tellgren, D. P. Tew, A. J. Thorvaldsen, L. Thoegersen,
       O. Vahtras, M. A. Watson, D. J. D. Wilson, M. Ziolkowski
       and H. Agren,
       "The Dalton quantum chemistry program system",
       WIREs Comput. Mol. Sci. 2014, 4:269–284 (doi: 10.1002/wcms.1172)
     
    and
     
       Dalton, a molecular electronic structure program,
       Release Dalton2021.alpha (2020), see http://daltonprogram.org
   ----------------------------------------------------------------------------

    Authors in alphabetical order (Major contribution(s) in parenthesis):

  Kestutis Aidas,           Vilnius University,           Lithuania   (QM/MM)
  Celestino Angeli,         University of Ferrara,        Italy       (NEVPT2)
  Keld L. Bak,              UNI-C,                        Denmark     (AOSOPPA, non-adiabatic coupling, magnetic properties)
  Vebjoern Bakken,          University of Oslo,           Norway      (DALTON; geometry optimizer, symmetry detection)
  Radovan Bast,             UiT The Arctic U. of Norway,  Norway      (DALTON installation and execution frameworks)
  Pablo Baudin,             University of Valencia,       Spain       (Cholesky excitation energies)
  Linus Boman,              NTNU,                         Norway      (Cholesky decomposition and subsystems)
  Bruno N. Cabral Tenorio,  Technical Univ. of Denmark,   Denmark     (Lanczos-based CC methods)
  Ove Christiansen,         Aarhus University,            Denmark     (CC module)
  Renzo Cimiraglia,         University of Ferrara,        Italy       (NEVPT2)
  Sonia Coriani,            Technical Univ. of Denmark,   Denmark     (CC and RESPONS modules)
  Janusz Cukras,            University of Warsaw,         Poland      (MChD in RESPONS)
  Paal Dahle,               University of Oslo,           Norway      (Parallelization)
  Erik K. Dalskov,          UNI-C,                        Denmark     (SOPPA)
  Thomas Enevoldsen,        Univ. of Southern Denmark,    Denmark     (SOPPA)
  Janus J. Eriksen,         Aarhus University,            Denmark     (Polarizable embedding, TDA)
  Rasmus Faber,             Technical Univ. of Denmark,   Denmark     (Vib.avg. NMR w. SOPPA, parallel AO-SOPPA, CVS-CC and EOMCC)
  Tobias Fahleson,          KTH Stockholm,                Sweden      (Damped cubic response)
  Berta Fernandez,          U. of Santiago de Compostela, Spain       (Doublet spin, ESR in RESPONS)
  Lara Ferrighi,            Aarhus University,            Denmark     (PCM Cubic response)
  Heike Fliegl,             University of Oslo,           Norway      (CCSD(R12))
  Luca Frediani,            UiT The Arctic U. of Norway,  Norway      (PCM)
  Emmanuel Fromager,        Univ. Strasbourg,             France      (MC-srDFT)
  Bin Gao,                  UiT The Arctic U. of Norway,  Norway      (Gen1Int library)
  Andre S. P. Gomes,        CNRS/Universite de Lille,     France      (Frozen density embedding)
  Christof Haettig,         Ruhr-University Bochum,       Germany     (CC module)
  Kasper Hald,              Aarhus University,            Denmark     (CC module)
  Asger Halkier,            Aarhus University,            Denmark     (CC module)
  Frederik Beyer Hansen,    University of Copenhagen,     Denmark     (Parallel AO-SOPPA)
  Erik D. Hedegaard,        Univ. of Southern Denmark,    Denmark     (Polarizable embedding, QM/MM, and MC-srDFT)
  Hanne Heiberg,            University of Oslo,           Norway      (Geometry analysis, selected one-electron integrals)
  Trygve Helgaker,          University of Oslo,           Norway      (DALTON; ABACUS, ERI, DFT modules, London, and much more)
  Alf Christian Hennum,     University of Oslo,           Norway      (Parity violation)
  Hinne Hettema,            University of Auckland,       New Zealand (Quadratic response in RESPONS; SIRIUS supersymmetry)
  Eirik Hjertenaes,         NTNU,                         Norway      (Cholesky decomposition)
  Pi A. B. Haase,           University of Copenhagen,     Denmark     (Triplet AO-SOPPA)
  Maria Francesca Iozzi,    University of Oslo,           Norway      (RPA)
  Christoph Jacob           TU Braunschweig               Germany     (Frozen density embedding)
  Brano Jansik              Technical Univ. of Ostrava    Czech Rep.  (DFT cubic response)
  Hans Joergen Aa. Jensen,  Univ. of Southern Denmark,    Denmark     (DALTON; SIRIUS, RESPONS, ABACUS, MC-srDFT, and much more)
  Dan Jonsson,              UiT The Arctic U. of Norway,  Norway      (Cubic response in RESPONS module)
  Poul Joergensen,          Aarhus University,            Denmark     (RESPONS, ABACUS, and CC modules)
  Maciej Kaminski,          University of Warsaw,         Poland      (CPPh in RESPONS)
  Joanna Kauczor,           Linkoeping University,        Sweden      (Complex polarization propagator (CPP) module)
  Sheela Kirpekar,          Univ. of Southern Denmark,    Denmark     (Mass-velocity & Darwin integrals)
  Erik Kjellgren,           Univ. of Southern Denmark,    Denmark     (MC-srDFT)
  Wim Klopper,              KIT Karlsruhe,                Germany     (R12 code in CC, SIRIUS, and ABACUS modules)
  Stefan Knecht,            ETH Zurich,                   Switzerland (Parallel CI and MCSCF, MC-srDFT)
  Rika Kobayashi,           Australian National Univ.,    Australia   (DIIS in CC, London in MCSCF)
  Henrik Koch,              NTNU,                         Norway      (CC module, Cholesky decomposition)
  Jacob Kongsted,           Univ. of Southern Denmark,    Denmark     (Polarizable embedding, polarizable density embedding, QM/MM)
  Andrea Ligabue,           University of Modena,         Italy       (CTOCD, AOSOPPA)
  Nanna H. List             Univ. of Southern Denmark,    Denmark     (Polarizable embedding)
  Ola B. Lutnaes,           University of Oslo,           Norway      (DFT Hessian)
  Juan I. Melo,             University of Buenos Aires,   Argentina   (LRESC, Relativistic Effects on NMR Shieldings)
  Kurt V. Mikkelsen,        University of Copenhagen,     Denmark     (MC-SCRF and QM/MM)
  Rolf H. Myhre,            NTNU,                         Norway      (Subsystems and CC3)
  Christian Neiss,          Univ. Erlangen-Nuernberg,     Germany     (CCSD(R12))
  Christian B. Nielsen,     University of Copenhagen,     Denmark     (QM/MM)
  Patrick Norman,           KTH Stockholm,                Sweden      (Cubic response and complex frequency response in RESPONS)
  Jeppe Olsen,              Aarhus University,            Denmark     (SIRIUS CI/density modules)
  Jogvan Magnus H. Olsen,   Aarhus University,            Denmark     (Polarizable embedding and polarizable density embedding)
  Anders Osted,             Copenhagen University,        Denmark     (QM/MM)
  Martin J. Packer,         University of Sheffield,      UK          (SOPPA)
  Filip Pawlowski,          Kazimierz Wielki University,  Poland      (CC3)
  Morten N. Pedersen,       Univ. of Southern Denmark,    Denmark     (Polarizable embedding)
  Thomas B. Pedersen,       University of Oslo,           Norway      (Cholesky decomposition)
  Patricio F. Provasi,      University of Northeastern,   Argentina   (Analysis of coupling constants in localized orbitals)
  Peter Reinholdt,          Univ. of Southern Denmark,    Denmark     (Polarizable embedding and polarizable density embedding)
  Zilvinas Rinkevicius,     KTH Stockholm,                Sweden      (open-shell DFT, ESR)
  Elias Rudberg,            KTH Stockholm,                Sweden      (DFT grid and basis info)
  Torgeir A. Ruden,         University of Oslo,           Norway      (Numerical derivatives in ABACUS)
  Kenneth Ruud,             UiT The Arctic U. of Norway,  Norway      (DALTON; ABACUS magnetic properties and much more)
  Pawel Salek,              KTH Stockholm,                Sweden      (DALTON; DFT code)
  Claire C. M. Samson       University of Karlsruhe       Germany     (Boys localization, r12 integrals in ERI)
  Alfredo Sanchez de Meras, University of Valencia,       Spain       (CC module, Cholesky decomposition)
  Trond Saue,               Paul Sabatier University,     France      (direct Fock matrix construction)
  Stephan P. A. Sauer,      University of Copenhagen,     Denmark     (SOPPA(CCSD), SOPPA prop., AOSOPPA, vibrational g-factors)
  Bernd Schimmelpfennig,    Forschungszentrum Karlsruhe,  Germany     (AMFI module)
  Anna K. Schnack-Petersen, University of Copenhagen,     Denmark     (RPA(D) and HRPA(D) properties in AOSOPPA)
  Kristian Sneskov,         Aarhus University,            Denmark     (Polarizable embedding, QM/MM)
  Arnfinn H. Steindal,      UiT The Arctic U. of Norway,  Norway      (parallel QM/MM, polarizable embedding)
  Casper Steinmann,         Aalborg University,           Denmark     (QFIT, polarizable embedding)
  K. O. Sylvester-Hvid,     University of Copenhagen,     Denmark     (MC-SCRF)
  Peter R. Taylor,          VLSCI/Univ. of Melbourne,     Australia   (Symmetry handling ABACUS, integral transformation)
  Andrew M. Teale,          University of Nottingham,     England     (DFT-AC, DFT-D)
  David P. Tew,             University of Bristol,        England     (CCSD(R12))
  Julien Toulouse,          Sorbonne Univ.,               France      (MC-srDFT)
  Olav Vahtras,             KTH Stockholm,                Sweden      (Triplet response, spin-orbit, ESR, TDDFT, open-shell DFT)
  Lucas Visscher,           Vrije Universiteit Amsterdam, Netherlands (Frozen density embedding)
  David J. Wilson,          La Trobe University,          Australia   (DFT Hessian and DFT magnetizabilities)
  Hans Agren,               KTH Stockholm,                Sweden      (SIRIUS module, RESPONS, MC-SCRF solvation)
 --------------------------------------------------------------------------------

     Date and time (Darwin) : Wed Sep  8 11:30:24 2021
     Host name              : dhcpu489.scarlan.ki.ku.dk               

 * Work memory size             :    64000000 =  488.28 megabytes.

 * Directories for basis set searches:
   1) /Users/aehb/Desktop/dalton/cp_test
   2) /Users/aehb/Desktop/dalton/build/basis


Compilation information
-----------------------

 Who compiled             | aehb
 Host                     | dhcpu489.scarlan.ki.ku.dk
 System                   | Darwin-20.6.0
 CMake generator          | Unix Makefiles
 Processor                | x86_64
 64-bit integers          | ON
 MPI                      | OFF
 Fortran compiler         | /usr/local/bin/gfortran-9
 Fortran compiler version | unknown
 C compiler               | /usr/local/bin/gcc-9
 C compiler version       | unknown
 C++ compiler             | /usr/local/bin/g++-9
 C++ compiler version     | unknown
 Static linking           | OFF
 Last Git revision        | b4891b7e7922fcabfb1332e479558cca56faa20d
 Git branch               | MP3_energy
 Configuration time       | 2021-09-08 11:19:19.437166


   Content of the .dal input file
 ----------------------------------

**DALTON
.RUN WAVE FUNCTIONS
**WAVE FUNCTIONS
.CC
*CC INP
.MP3
.FREEZE
1 0
**END OF


   Content of the .mol file
 ----------------------------

ATOMBASIS
Ethylene in D2H symmetry using 6-31G
Test system for CPS(D) energies to 3. order using symmetry
Atomtypes=2 Charge=0 Symmetry Angstrom
  6.0000     2 Bas=6-31G
C    0.000000000        0.000000000        0.657520000
C    0.000000000        0.000000000       -0.657520000
  1.0000     4 Bas=6-31G
H    0.000000000        0.911700000        1.224590000
H    0.000000000       -0.911700000        1.224590000
H   -0.000000000       -0.911700000       -1.224590000
H    0.000000000        0.911700000       -1.224590000


       *******************************************************************
       *********** Output from DALTON general input processing ***********
       *******************************************************************

 --------------------------------------------------------------------------------
   Overall default print level:    0
   Print level for DALTON.STAT:    1

    HERMIT 1- and 2-electron integral sections will be executed
    "Old" integral transformation used (limited to max 255 basis functions)
    Wave function sections will be executed (SIRIUS module)
 --------------------------------------------------------------------------------


   ****************************************************************************
   *************** Output of molecule and basis set information ***************
   ****************************************************************************


    The two title cards from your ".mol" input:
    ------------------------------------------------------------------------
 1: Ethylene in D2H symmetry using 6-31G                                    
 2: Test system for CPS(D) energies to 3. order using symmetry              
    ------------------------------------------------------------------------

  Coordinates are entered in Angstrom and converted to atomic units.
          - Conversion factor : 1 bohr = 0.52917721 A

  Atomic type no.    1
  --------------------
  Nuclear charge:   6.00000
  Number of symmetry independent centers:    2
  Number of basis sets to read;    2
  The basis set is "6-31G" from the basis set library.
  Basis set file used for this atomic type with Z =   6 :
     "/Users/aehb/Desktop/dalton/build/basis/6-31G"

  Info about the basis set file: your basis has no documentation.
  Basis set: 6-31G                                                                           

  Atomic type no.    2
  --------------------
  Nuclear charge:   1.00000
  Number of symmetry independent centers:    4
  Number of basis sets to read;    2
  The basis set is "6-31G" from the basis set library.
  Basis set file used for this atomic type with Z =   1 :
     "/Users/aehb/Desktop/dalton/build/basis/6-31G"

  Info about the basis set file: your basis has no documentation.
  Basis set: 6-31G                                                                           


                      SYMADD: Requested addition of symmetry
                      --------------------------------------

 Symmetry test threshold:  5.00E-06

@   The molecule is centered at center of mass and rotated
@   so principal axes of inertia are along coordinate axes.

 Symmetry class found: D(2h)          

 Symmetry Independent Centres             
 ----------------------------
C      6 :      0.00000000     1.24253272     0.00000000  Isotope  1
H      1 :      0.00000000     2.31413972     1.72286331  Isotope  1

 The following symmetry elements were found:   X  Y  Z  


                         SYMGRP: Point group information
                         -------------------------------

@    Full point group is: D(2h)          
@    Represented as:      D2h

@  * The irrep name for each symmetry:    1: Ag     2: B3u    3: B2u    4: B1g    5: B1u    6: B2g    7: B3g    8: Au 


   * The point group was generated by:

      Reflection in the yz-plane
      Reflection in the xz-plane
      Reflection in the xy-plane

   * Group multiplication table

        |  E   C2z  C2y  C2x   i   Oxy  Oxz  Oyz
   -----+----------------------------------------
     E  |  E   C2z  C2y  C2x   i   Oxy  Oxz  Oyz
    C2z | C2z   E   C2x  C2y  Oxy   i   Oyz  Oxz
    C2y | C2y  C2x   E   C2z  Oxz  Oyz   i   Oxy
    C2x | C2x  C2y  C2z   E   Oyz  Oxz  Oxy   i 
     i  |  i   Oxy  Oxz  Oyz   E   C2z  C2y  C2x
    Oxy | Oxy   i   Oyz  Oxz  C2z   E   C2x  C2y
    Oxz | Oxz  Oyz   i   Oxy  C2y  C2x   E   C2z
    Oyz | Oyz  Oxz  Oxy   i   C2x  C2y  C2z   E 

   * Character table

        |  E   C2z  C2y  C2x   i   Oxy  Oxz  Oyz
   -----+----------------------------------------
    Ag  |   1    1    1    1    1    1    1    1
    B3u |   1   -1   -1    1   -1    1    1   -1
    B2u |   1   -1    1   -1   -1    1   -1    1
    B1g |   1    1   -1   -1    1    1   -1   -1
    B1u |   1    1   -1   -1   -1   -1    1    1
    B2g |   1   -1    1   -1    1   -1    1   -1
    B3g |   1   -1   -1    1    1   -1   -1    1
    Au  |   1    1    1    1   -1   -1   -1   -1

   * Direct product table

        | Ag   B3u  B2u  B1g  B1u  B2g  B3g  Au 
   -----+----------------------------------------
    Ag  | Ag   B3u  B2u  B1g  B1u  B2g  B3g  Au 
    B3u | B3u  Ag   B1g  B2u  B2g  B1u  Au   B3g
    B2u | B2u  B1g  Ag   B3u  B3g  Au   B1u  B2g
    B1g | B1g  B2u  B3u  Ag   Au   B3g  B2g  B1u
    B1u | B1u  B2g  B3g  Au   Ag   B3u  B2u  B1g
    B2g | B2g  B1u  Au   B3g  B3u  Ag   B1g  B2u
    B3g | B3g  Au   B1u  B2g  B2u  B1g  Ag   B3u
    Au  | Au   B3g  B2g  B1u  B1g  B2u  B3u  Ag 


                                 Isotopic Masses
                                 ---------------

                           C   _1     12.000000
                           C   _2     12.000000
                           H   _1      1.007825
                           H   _2      1.007825
                           H   _3      1.007825
                           H   _4      1.007825

                       Total mass:    28.031300 amu
                       Natural abundance:  97.753 %

 Center-of-mass coordinates (a.u.):    0.000000    0.000000    0.000000
 Center-of-mass coordinates (Angs):    0.000000    0.000000    0.000000


  Atoms and basis sets
  --------------------

  Number of atom types :    2
  Total number of atoms:    6

  label    atoms   charge   prim   cont     basis
  ----------------------------------------------------------------------
  C           2    6.0000    22     9      [10s4p|3s2p]                                       
  H           4    1.0000     4     2      [4s|2s]                                            
  ----------------------------------------------------------------------
  total:      6   16.0000    60    26
  ----------------------------------------------------------------------

  Threshold for neglecting AO integrals:  1.00D-12


  Cartesian Coordinates (a.u.)
  ----------------------------

  Total number of coordinates:   18
  C   / 1 :     1  x   0.0000000000    2  y   1.2425327217    3  z   0.0000000000
  C   / 2 :     4  x   0.0000000000    5  y  -1.2425327217    6  z   0.0000000000
  H   / 1 :     7  x   0.0000000000    8  y   2.3141397154    9  z   1.7228633082
  H   / 2 :    10  x   0.0000000000   11  y  -2.3141397154   12  z   1.7228633082
  H   / 3 :    13  x   0.0000000000   14  y   2.3141397154   15  z  -1.7228633082
  H   / 4 :    16  x   0.0000000000   17  y  -2.3141397154   18  z  -1.7228633082


  Symmetry Coordinates
  --------------------

  Number of coordinates in each symmetry:     3    2    3    2    3    1    3    1

  Symmetry  Ag  ( 1)

    1   C     y    [  2  -    5 ]/2
    2   H     y    [  8  -   11  +   14  -   17 ]/4
    3   H     z    [  9  +   12  -   15  -   18 ]/4

  Symmetry  B3u ( 2)

    4   C     x    [  1  +    4 ]/2
    5   H     x    [  7  +   10  +   13  +   16 ]/4

  Symmetry  B2u ( 3)

    6   C     y    [  2  +    5 ]/2
    7   H     y    [  8  +   11  +   14  +   17 ]/4
    8   H     z    [  9  -   12  -   15  +   18 ]/4

  Symmetry  B1g ( 4)

    9   C     x    [  1  -    4 ]/2
   10   H     x    [  7  -   10  +   13  -   16 ]/4

  Symmetry  B1u ( 5)

   11   C     z    [  3  +    6 ]/2
   12   H     y    [  8  -   11  -   14  +   17 ]/4
   13   H     z    [  9  +   12  +   15  +   18 ]/4

  Symmetry  B2g ( 6)

   14   H     x    [  7  +   10  -   13  -   16 ]/4

  Symmetry  B3g ( 7)

   15   C     z    [  3  -    6 ]/2
   16   H     y    [  8  +   11  -   14  -   17 ]/4
   17   H     z    [  9  -   12  +   15  -   18 ]/4

  Symmetry  Au  ( 8)

   18   H     x    [  7  -   10  -   13  +   16 ]/4


   Interatomic separations (in Angstrom):
   --------------------------------------

            C   _1      C   _2      H   _1      H   _2      H   _3      H   _4
            ------      ------      ------      ------      ------      ------
 C   _1:    0.000000
 C   _2:    1.315040    0.000000
 H   _1:    1.073669    2.091300    0.000000
 H   _2:    2.091300    1.073669    2.449180    0.000000
 H   _3:    1.073669    2.091300    1.823400    3.053403    0.000000
 H   _4:    2.091300    1.073669    3.053403    1.823400    2.449180    0.000000


  Max    interatomic separation is    3.0534 Angstrom (    5.7701 Bohr)
  between atoms    5 and    4, "H   _3" and "H   _2".

  Min HX interatomic separation is    1.0737 Angstrom (    2.0289 Bohr)

  Min YX interatomic separation is    1.3150 Angstrom (    2.4851 Bohr)


  Bond distances (Angstrom):
  --------------------------

                  atom 1     atom 2       distance
                  ------     ------       --------
  bond distance:  C   _2     C   _1       1.315040
  bond distance:  H   _1     C   _1       1.073669
  bond distance:  H   _2     C   _2       1.073669
  bond distance:  H   _3     C   _1       1.073669
  bond distance:  H   _4     C   _2       1.073669


  Bond angles (degrees):
  ----------------------

                  atom 1     atom 2     atom 3         angle
                  ------     ------     ------         -----
  bond angle:     C   _2     C   _1     H   _1       121.881
  bond angle:     C   _2     C   _1     H   _3       121.881
  bond angle:     H   _1     C   _1     H   _3       116.237
  bond angle:     C   _1     C   _2     H   _2       121.881
  bond angle:     C   _1     C   _2     H   _4       121.881
  bond angle:     H   _2     C   _2     H   _4       116.237




 Principal moments of inertia (u*A**2) and principal axes
 --------------------------------------------------------

   IA       3.350804          0.000000    1.000000    0.000000
   IB      16.421402          0.000000    0.000000    1.000000
   IC      19.772206          1.000000    0.000000    0.000000


 Rotational constants
 --------------------

@    The molecule is planar.

               A                   B                   C

         150823.2062          30775.6308          25560.0718 MHz
            5.030921            1.026565            0.852592 cm-1


@  Nuclear repulsion energy :   33.747442935999 Hartree


  Symmetry Orbitals
  -----------------

  Number of orbitals in each symmetry:           7    2    7    2    4    0    4    0


  Symmetry  Ag ( 1)

    1     C        1s         1 +    2
    2     C        1s         3 +    4
    3     C        1s         5 +    6
    4     C        2py        9 -   10
    5     C        2py       15 -   16
    6     H        1s        19 +   20 +   21 +   22
    7     H        1s        23 +   24 +   25 +   26


  Symmetry  B3u( 2)

    8     C        2px        7 +    8
    9     C        2px       13 +   14


  Symmetry  B2u( 3)

   10     C        1s         1 -    2
   11     C        1s         3 -    4
   12     C        1s         5 -    6
   13     C        2py        9 +   10
   14     C        2py       15 +   16
   15     H        1s        19 -   20 +   21 -   22
   16     H        1s        23 -   24 +   25 -   26


  Symmetry  B1g( 4)

   17     C        2px        7 -    8
   18     C        2px       13 -   14


  Symmetry  B1u( 5)

   19     C        2pz       11 +   12
   20     C        2pz       17 +   18
   21     H        1s        19 +   20 -   21 -   22
   22     H        1s        23 +   24 -   25 -   26


  No orbitals in symmetry  B2g( 6)


  Symmetry  B3g( 7)

   23     C        2pz       11 -   12
   24     C        2pz       17 -   18
   25     H        1s        19 -   20 -   21 +   22
   26     H        1s        23 -   24 -   25 +   26


  No orbitals in symmetry  Au ( 8)

  Symmetries of electric field:  B3u(2)  B2u(3)  B1u(5)

  Symmetries of magnetic field:  B3g(7)  B2g(6)  B1g(4)


                     .---------------------------------------.
                     | Starting in Integral Section (HERMIT) |
                     `---------------------------------------'



 ***************************************************************************************
 ****************** Output from **INTEGRALS input processing (HERMIT) ******************
 ***************************************************************************************


 - Using defaults, no **INTEGRALS input found

 Default print level:        1

 Calculation of one- and two-electron Hamiltonian integrals.

 Center of mass  (bohr):      0.000000000000      0.000000000000      0.000000000000
 Operator center (bohr):      0.000000000000      0.000000000000      0.000000000000
 Gauge origin    (bohr):      0.000000000000      0.000000000000      0.000000000000
 Dipole origin   (bohr):      0.000000000000      0.000000000000      0.000000000000

Calculation of 2-electron integrals are postponed until they are needed.


     ************************************************************************
     ************************** Output from HERINT **************************
     ************************************************************************



                      Nuclear contribution to dipole moments
                      --------------------------------------

                    All dipole components are zero by symmetry


  Total CPU  time used in HERMIT:   0.01 seconds
  Total wall time used in HERMIT:   0.01 seconds


                        .----------------------------------.
                        | End of Integral Section (HERMIT) |
                        `----------------------------------'



                   .--------------------------------------------.
                   | Starting in Wave Function Section (SIRIUS) |
                   `--------------------------------------------'


 *** Output from Huckel module :

     Using EWMO model:          F
     Using EHT  model:          T
     Number of Huckel orbitals each symmetry:    4    1    4    1    2    0    2    0

 Huckel EHT eigenvalues for symmetry :  1
          -11.394434      -1.290388      -0.513934      -0.204382

 Huckel EHT eigenvalues for symmetry :  2
           -0.523022

 Huckel EHT eigenvalues for symmetry :  3
          -11.375592      -0.916459      -0.229124      -0.167895

 Huckel EHT eigenvalues for symmetry :  4
           -0.290778

 Huckel EHT eigenvalues for symmetry :  5
           -0.749131      -0.207466

 Huckel EHT eigenvalues for symmetry :  7
           -0.504025      -0.175771

 **********************************************************************
 *SIRIUS* a direct, restricted step, second order MCSCF program       *
 **********************************************************************

 
     Date and time (Darwin) : Wed Sep  8 11:30:24 2021
     Host name              : dhcpu489.scarlan.ki.ku.dk               

 Title lines from ".mol" input file:
     Ethylene in D2H symmetry using 6-31G                                    
     Test system for CPS(D) energies to 3. order using symmetry              

 Print level on unit LUPRI =   2 is   0
 Print level on unit LUW4  =   2 is   5

@    (Integral direct) CC calculation.

@    This is a combination run starting with
@              a restricted, closed shell Hartree-Fock calculation


 Initial molecular orbitals are obtained according to
 ".MOSTART EHT   " input option

     Wave function specification
     ============================

     For the specification of the Coupled Cluster: see below.

@    Wave function type        --- CC ---
@    Number of closed shell electrons          16
@    Number of electrons in active shells       0
@    Total charge of the molecule               0

@    Spin multiplicity and 2 M_S                1         0
@    Total number of symmetries                 8 (point group: D2h)
@    Reference state symmetry                   1 (irrep name : Ag )

     Orbital specifications
     ======================
@    Abelian symmetry species          All |    1    2    3    4    5    6    7    8
@                                          |  Ag   B3u  B2u  B1g  B1u  B2g  B3g  Au 
                                       --- |  ---  ---  ---  ---  ---  ---  ---  ---
@    Total number of orbitals           26 |    7    2    7    2    4    0    4    0
@    Number of basis functions          26 |    7    2    7    2    4    0    4    0

      ** Automatic occupation of RHF orbitals **

      -- Initial occupation of symmetries is determined from extended Huckel guess.           
      -- Initial occupation of symmetries is :
@    Occupied SCF orbitals               8 |    3    1    2    0    1    0    1    0

     Maximum number of Fock   iterations      0
     Maximum number of DIIS   iterations     60
     Maximum number of QC-SCF iterations     60
     Threshold for SCF convergence     1.00D-06


 Changes of defaults for CC:
 ---------------------------


 -Implicit frozen core calculation
  


 ***********************************************
 ***** DIIS acceleration of SCF iterations *****
 ***********************************************

 C1-DIIS algorithm; max error vectors =    8

 Automatic occupation of symmetries with  16 electrons.

 Iter     Total energy    Error norm  Delta(E)    SCF occupation
 -----------------------------------------------------------------------------

Calculating AOSUPINT

---> (Re)generating AOTWOINT


     ************************************************************************
     ************************** Output from HERINT **************************
     ************************************************************************


 Threshold for neglecting two-electron integrals:  1.00D-12
 HERMIT - Number of two-electron integrals written:       10094 ( 16.3% )
 HERMIT - Megabytes written:                              0.117

     (Precalculated AO two-electron integrals are transformed to P-supermatrix elements.
      Threshold for discarding integrals :  1.00D-12 )
@  1  -77.6774688247       2.36D+00  -7.77D+01     3   1   2   0   1   0   1   0
      Virial theorem: -V/T =      2.019154
@    MULPOP   C   _1  0.28; C   _2  0.28; H   _1 -0.14; H   _2 -0.14; H   _3 -0.14; H   _4 -0.14; 
   1  Level shift: doubly occupied orbital energies shifted by -2.00D-01
 -----------------------------------------------------------------------------
@  2  -77.9868005969       4.82D-01  -3.09D-01     3   1   2   0   1   0   1   0
      Virial theorem: -V/T =      1.994430
@    MULPOP   C   _1 -0.28; C   _2 -0.28; H   _1  0.14; H   _2  0.14; H   _3  0.14; H   _4  0.14; 
   2  Level shift: doubly occupied orbital energies shifted by -5.00D-02
 -----------------------------------------------------------------------------
@  3  -78.0031371773       1.08D-01  -1.63D-02     3   1   2   0   1   0   1   0
      Virial theorem: -V/T =      2.000126
@    MULPOP   C   _1 -0.28; C   _2 -0.28; H   _1  0.14; H   _2  0.14; H   _3  0.14; H   _4  0.14; 
   3  Level shift: doubly occupied orbital energies shifted by -1.25D-02
 -----------------------------------------------------------------------------
@  4  -78.0043277296       2.00D-02  -1.19D-03     3   1   2   0   1   0   1   0
      Virial theorem: -V/T =      1.998538
@    MULPOP   C   _1 -0.32; C   _2 -0.32; H   _1  0.16; H   _2  0.16; H   _3  0.16; H   _4  0.16; 
 -----------------------------------------------------------------------------
@  5  -78.0043860360       2.34D-03  -5.83D-05     3   1   2   0   1   0   1   0
      Virial theorem: -V/T =      1.998448
@    MULPOP   C   _1 -0.32; C   _2 -0.32; H   _1  0.16; H   _2  0.16; H   _3  0.16; H   _4  0.16; 
 -----------------------------------------------------------------------------
@  6  -78.0043868267       1.96D-04  -7.91D-07     3   1   2   0   1   0   1   0
      Virial theorem: -V/T =      1.998451
@    MULPOP   C   _1 -0.33; C   _2 -0.33; H   _1  0.16; H   _2  0.16; H   _3  0.16; H   _4  0.16; 
 -----------------------------------------------------------------------------
@  7  -78.0043868318       2.91D-05  -5.12D-09     3   1   2   0   1   0   1   0
      Virial theorem: -V/T =      1.998451
@    MULPOP   C   _1 -0.33; C   _2 -0.33; H   _1  0.16; H   _2  0.16; H   _3  0.16; H   _4  0.16; 
 -----------------------------------------------------------------------------
@  8  -78.0043868319       2.28D-06  -1.04D-10     3   1   2   0   1   0   1   0
      Virial theorem: -V/T =      1.998451
@    MULPOP   C   _1 -0.33; C   _2 -0.33; H   _1  0.16; H   _2  0.16; H   _3  0.16; H   _4  0.16; 
 -----------------------------------------------------------------------------
@  9  -78.0043868319       3.40D-07  -7.39D-13     3   1   2   0   1   0   1   0

@ *** DIIS converged in   9 iterations !
@     Converged SCF energy, gradient:    -78.004386831911    3.40D-07
    - total time used in SIRFCK :              0.00 seconds


 *** SCF orbital energy analysis ***

 Number of electrons        :   16
 Closed shell orbitals      :    3    1    2    0    1    0    1    0

 Sym       Hartree-Fock orbital energies

1 Ag    -11.22759257    -1.04090789    -0.58945902     0.26572806     0.67224505
          0.89406286     1.24376603

2 B3u    -0.37623677     0.78156883

3 B2u   -11.22577852    -0.79115970     0.31015792     0.49418566     1.00868258
          1.25424572     1.39646012

4 B1g     0.17901427     0.89297304

5 B1u    -0.64502161     0.29075660     0.78517854     1.19445771

7 B3g    -0.49858953     0.39260576     1.15874683     1.52716111

    E(LUMO) :     0.17901427 au (symmetry 4)
  - E(HOMO) :    -0.37623677 au (symmetry 2)
  ------------------------------------------
    gap     :     0.55525104 au

 --- Writing SIRIFC interface file

--------------------------------------------------------------------------------


     .---------------------------------------------------------------.
     | HF-SCF KT IPs [a.u. & eV], pole strengths, and Dyson orbitals |
     `---------------------------------------------------------------'

     HF-SCF KT symmetry 1 ( Ag ) in point group D2h -- 3 principal poles

   ============  ============  ============
      11.227593      1.040908      0.589459
     305.518335     28.324544     16.039996
   ------------  ------------  ------------
       1.000000      1.000000      1.000000
   ============  ============  ============
       1.000000     -0.000000      0.000000
      -0.000000     -1.000000     -0.000000
      -0.000000     -0.000000      1.000000
   ============  ============  ============
  
     HF-SCF KT symmetry 2 ( B3u) in point group D2h -- 1 principal poles

   ============
       0.376237
      10.237923
   ------------
       1.000000
   ============
       1.000000
   ============
  
     HF-SCF KT symmetry 3 ( B2u) in point group D2h -- 2 principal poles

   ============  ============
      11.225779      0.791160
     305.468972     21.528551
   ------------  ------------
       1.000000      1.000000
   ============  ============
       1.000000     -0.000000
      -0.000000     -1.000000
   ============  ============
  
     HF-SCF KT symmetry 5 ( B1u) in point group D2h -- 1 principal poles

   ============
       0.645022
      17.551931
   ------------
       1.000000
   ============
       1.000000
   ============
  
     HF-SCF KT symmetry 7 ( B3g) in point group D2h -- 1 principal poles

   ============
       0.498590
      13.567311
   ------------
       1.000000
   ============
       1.000000
   ============
  

@ Summary of HF-SCF KT ionization potentials [eV] and pole strengths:

@ Symmetry 1 (Ag ) :   305.518      28.325      16.040
@ Pole strengths   :     1.000       1.000       1.000

@ Symmetry 2 (B3u) :    10.238
@ Pole strengths   :     1.000

@ Symmetry 3 (B2u) :   305.469      21.529
@ Pole strengths   :     1.000       1.000

@ Symmetry 4 (B1g) :  No IPs in this symmetry

@ Symmetry 5 (B1u) :    17.552
@ Pole strengths   :     1.000

@ Symmetry 6 (B2g) :  No IPs in this symmetry

@ Symmetry 7 (B3g) :    13.567
@ Pole strengths   :     1.000

@ Symmetry 8 (Au ) :  No IPs in this symmetry

  === End of HF-SCF KT output ===
--------------------------------------------------------------------------------


 CPU and wall time for SCF :       0.021       0.023


                       .-----------------------------------.
                       | --- Final results from SIRIUS --- |
                       `-----------------------------------'


@    Spin multiplicity:           1
@    Spatial symmetry:            1 ( irrep  Ag  in D2h )
@    Total charge of molecule:    0

@    Final HF energy:             -78.004386831911                 
@    Nuclear repulsion:            33.747442935999
@    Electronic energy:          -111.751829767910

@    Final gradient norm:           0.000000340046

 
     Date and time (Darwin) : Wed Sep  8 11:30:24 2021
     Host name              : dhcpu489.scarlan.ki.ku.dk               

File label for MO orbitals:   8Sep21   FOCKDIIS

 (Only coefficients > 0.0100 are printed.)

 Molecular orbitals for symmetry species 1  (Ag )
 ------------------------------------------------

    Orbital         1        2        3        4        5        6        7
   1 C   :1s     0.7041  -0.1586   0.0096   0.0767   0.0193  -0.0262   0.0341
   2 C   :1s     0.0168   0.3116  -0.0254  -0.0774   0.2498  -0.9799  -1.0094
   3 C   :1s    -0.0069   0.2229   0.0200  -1.5067   0.2602   1.6651   1.5684
   4 C   :2py    0.0001  -0.1160   0.4133  -0.1434  -0.5797   0.0183  -0.3404
   5 C   :2py   -0.0008  -0.0039   0.1441  -0.6559   1.0962   0.4132   0.3843
   6 H   :1s    -0.0003   0.0838   0.1295   0.0144  -0.0956  -0.4185   0.5191
   7 H   :1s     0.0020   0.0157   0.1007   1.0465  -0.0966  -0.3088  -0.8315

 Molecular orbitals for symmetry species 2  (B3u)
 ------------------------------------------------

    Orbital         1        2
   1 C   :2px    0.3781   0.7542
   2 C   :2px    0.3057  -0.6399

 Molecular orbitals for symmetry species 3  (B2u)
 ------------------------------------------------

    Orbital         1        2        3        4        5        6        7
   1 C   :1s     0.7046  -0.1208  -0.1066   0.0680  -0.0950   0.0275  -0.0137
   2 C   :1s     0.0181   0.2420   0.0984  -0.0091  -0.1710  -0.9267  -1.4450
   3 C   :1s    -0.0154   0.2403   1.9462  -3.2436   1.5346   2.0440   4.9570
   4 C   :2py   -0.0004   0.1667   0.0992   0.1348  -0.6751  -0.5501   0.5799
   5 C   :2py    0.0030   0.0565   0.1632   3.0772   0.2089   0.5507  -2.0804
   6 H   :1s    -0.0000   0.1517  -0.0158  -0.0803  -0.4264   0.4668  -0.2892
   7 H   :1s     0.0019   0.0686  -1.0839  -0.6035  -0.1138  -1.0166  -0.0492

 Molecular orbitals for symmetry species 4  (B1g)
 ------------------------------------------------

    Orbital         1        2
   1 C   :2px    0.3457  -0.8247
   2 C   :2px    0.7531   1.0740

 Molecular orbitals for symmetry species 5  (B1u)
 ------------------------------------------------

    Orbital         1        2        3        4
   1 C   :2pz    0.3244  -0.2547   0.4511   0.6965
   2 C   :2pz    0.1261  -0.8127  -0.9352  -0.9272
   3 H   :1s     0.1589   0.0461   0.3861  -0.5450
   4 H   :1s     0.1061   1.1145   0.2113   1.0371

 Molecular orbitals for symmetry species 7  (B3g)
 ------------------------------------------------

    Orbital         1        2        3        4
   1 C   :2pz    0.3072  -0.2502   0.9281  -0.0398
   2 C   :2pz    0.2031  -1.9263  -2.9883   2.6750
   3 H   :1s     0.1980  -0.0429  -0.1492  -0.7732
   4 H   :1s     0.1520   1.6531   1.5255  -0.6939

  Total CPU  time used in SIRIUS :   0.02 seconds
  Total wall time used in SIRIUS :   0.03 seconds

 
     Date and time (Darwin) : Wed Sep  8 11:30:24 2021
     Host name              : dhcpu489.scarlan.ki.ku.dk               


                     .---------------------------------------.
                     | End of Wave Function Section (SIRIUS) |
                     `---------------------------------------'



                    .------------------------------------------.
                    | Starting in Coupled Cluster Section (CC) |
                    `------------------------------------------'

  

 *******************************************************************************
 *******************************************************************************
 *                                                                             *
 *                                                                             *
 *                    START OF COUPLED CLUSTER CALCULATION                     *
 *                                                                             *
 *                                                                             *
 *******************************************************************************
 *******************************************************************************


  I am freezing!
 Freezing HF-orbital   1 of symmetry   1 and with orbital energy  -11.2276
 In total frozen-core per symmetry-class:  1  0  0  0  0  0  0  0
 


 CCR12 ANSATZ =   0

 CCR12 APPROX =   0

   

 *******************************************************************
 *                                                                 *
 *----------                                             >---------*
 *---------- OUTPUT FROM COUPLED CLUSTER ENERGY PROGRAM  >---------*
 *----------                                             >---------*
 *                                                                 *
 *******************************************************************


             The Direct Coupled Cluster Energy Program
             -----------------------------------------


          Number of t1 amplitudes                 :        25
          Number of t2 amplitudes                 :      1301
          Total number of amplitudes in ccsd      :      1326



          Perturbation calculation - NO WAVEFUNCTION OPTIMIZATION
  

 *******************************************************************************
 *******************************************************************************
 *                                                                             *
 *                                                                             *
 *                           STARTING MP3 CALCULATION                          *
 *                                                                             *
 *                                                                             *
 *******************************************************************************
 *******************************************************************************



          Initializing calculation of first order amplitude corrections


          A wonder has occurred: We got the first order amplitude corrections!


          The second order correction to the energy is:  -0.1786608073


          Initializing calculation of second order amplitude corrections


          A wonder has occurred: We got the second order amplitude corrections!


          The third order correction to the energy is:  -0.0177393234
  

 *******************************************************************************
 *******************************************************************************
 *                                                                             *
 *                                                                             *
 *                            FINSHED MP3 CALCULATION                          *
 *                                                                             *
 *                                                                             *
 *******************************************************************************
 *******************************************************************************

  

 *******************************************************************************
 *******************************************************************************
 *                                                                             *
 *                                                                             *
 *                   SUMMARY OF COUPLED CLUSTER CALCULATION                    *
 *                                                                             *
 *                                                                             *
 *******************************************************************************
 *******************************************************************************

                                                                                
            Total SCF   energy:                         -78.0043868319          
                                                                                
            MP2 correction:                              -0.1786608073          
                                                                                
            Total MP2 energy:                           -78.1830476392          
                                                                                
            MP3 correction:                              -0.0177393234          
                                                                                
            Total MP3 energy:                           -78.2007869626          
  

 *******************************************************************************
 *******************************************************************************
 *                                                                             *
 *                                                                             *
 *                      END OF COUPLED CLUSTER CALCULATION                     *
 *                                                                             *
 *                                                                             *
 *******************************************************************************
 *******************************************************************************


 CPU and wall time for CC :       0.014       0.044

 
     Date and time (Darwin) : Wed Sep  8 11:30:25 2021
     Host name              : dhcpu489.scarlan.ki.ku.dk               


                      .-------------------------------------.
                      | End of Coupled Cluster Section (CC) |
                      `-------------------------------------'

  Total CPU  time used in DALTON:   0.05 seconds
  Total wall time used in DALTON:   0.08 seconds

 
     Date and time (Darwin) : Wed Sep  8 11:30:25 2021
     Host name              : dhcpu489.scarlan.ki.ku.dk               
