

     ************************************************************************
     *************** Dalton - An Electronic Structure Program ***************
     ************************************************************************

    This is output from DALTON release Dalton2022.0-dev (2022)
         ( Web site: http://daltonprogram.org )

   ----------------------------------------------------------------------------

    NOTE:
     
    Dalton is an experimental code for the evaluation of molecular
    properties using (MC)SCF, DFT, CI, and CC wave functions.
    The authors accept no responsibility for the performance of
    the code or for the correctness of the results.
     
    The code (in whole or part) is provided under a licence and
    is not to be reproduced for further distribution without
    the written permission of the authors or their representatives.
     
    See the home page "http://daltonprogram.org" for further information.
     
    If results obtained with this code are published,
    the appropriate citations would be both of:
     
       K. Aidas, C. Angeli, K. L. Bak, V. Bakken,
       R. Bast, L. Boman, O. Christiansen, R. Cimiraglia,
       S. Coriani, P. Dahle, E. K. Dalskov, U. Ekstroem,
       T. Enevoldsen, J. J. Eriksen, P. Ettenhuber, B. Fernandez,
       L. Ferrighi, H. Fliegl, L. Frediani, K. Hald, A. Halkier,
       C. Haettig, H. Heiberg, T. Helgaker, A. C. Hennum,
       H. Hettema, E. Hjertenaes, S. Hoest, I.-M. Hoeyvik,
       M. F. Iozzi, B. Jansik, H. J. Aa. Jensen, D. Jonsson,
       P. Joergensen, J. Kauczor, S. Kirpekar,
       T. Kjaergaard, W. Klopper, S. Knecht, R. Kobayashi, H. Koch,
       J. Kongsted, A. Krapp, K. Kristensen, A. Ligabue,
       O. B. Lutnaes, J. I. Melo, K. V. Mikkelsen, R. H. Myhre,
       C. Neiss, C. B. Nielsen, P. Norman, J. Olsen,
       J. M. H. Olsen, A. Osted, M. J. Packer, F. Pawlowski,
       T. B. Pedersen, P. F. Provasi, S. Reine, Z. Rinkevicius,
       T. A. Ruden, K. Ruud, V. Rybkin, P. Salek, C. C. M. Samson,
       A. Sanchez de Meras, T. Saue, S. P. A. Sauer,
       B. Schimmelpfennig, K. Sneskov, A. H. Steindal,
       K. O. Sylvester-Hvid, P. R. Taylor, A. M. Teale,
       E. I. Tellgren, D. P. Tew, A. J. Thorvaldsen, L. Thoegersen,
       O. Vahtras, M. A. Watson, D. J. D. Wilson, M. Ziolkowski
       and H. Agren,
       "The Dalton quantum chemistry program system",
       WIREs Comput. Mol. Sci. 2014, 4:269–284 (doi: 10.1002/wcms.1172)
     
    and
     
       Dalton, a molecular electronic structure program,
       Release Dalton2022.0-dev (2022), see http://daltonprogram.org
   ----------------------------------------------------------------------------

    Authors in alphabetical order (Major contribution(s) in parenthesis):

  Kestutis Aidas,              Vilnius University,        Lithuania   (QM/MM)
  Celestino Angeli,            University of Ferrara,     Italy       (NEVPT2)
  Juan J. Aucar,               Northeast National UniversiArgentina   (LRESC, Relativistic Effects on EFG)
  Keld L. Bak,                 UNI-C,                     Denmark     (AOSOPPA, non-adiabatic coupling, magnetic properties)
  Vebjoern Bakken,             University of Oslo,        Norway      (DALTON; geometry optimizer, symmetry detection)
  Radovan Bast,                UiT The Arctic U. of NorwayNorway      (DALTON installation and execution frameworks)
  Pablo Baudin,                University of Valencia,    Spain       (Cholesky excitation energies)
  Linus Boman,                 NTNU,                      Norway      (Cholesky decomposition and subsystems)
  Bruno N. Cabral Tenorio,     Technical Univ. of Denmark,Denmark     (Lanczos-based CC methods)
  Ove Christiansen,            Aarhus University,         Denmark     (CC module)
  Renzo Cimiraglia,            University of Ferrara,     Italy       (NEVPT2)
  Sonia Coriani,               Technical Univ. of Denmark,Denmark     (CC and RESPONS modules)
  Janusz Cukras,               University of Warsaw,      Poland      (MChD in RESPONS)
  Paal Dahle,                  University of Oslo,        Norway      (Parallelization)
  Erik K. Dalskov,             UNI-C,                     Denmark     (SOPPA)
  Thomas Enevoldsen,           Univ. of Southern Denmark, Denmark     (SOPPA)
  Janus J. Eriksen,            Aarhus University,         Denmark     (Polarizable embedding, TDA)
  Rasmus Faber,                Technical Univ. of Denmark,Denmark     (Vib.avg. NMR w. SOPPA, parallel AO-SOPPA, CVS-CC and EOMCC)
  Tobias Fahleson,             KTH Stockholm,             Sweden      (Damped cubic response)
  Berta Fernandez,             U. of Santiago de CompostelSpain       (Doublet spin, ESR in RESPONS)
  Lara Ferrighi,               Aarhus University,         Denmark     (PCM Cubic response)
  Heike Fliegl,                University of Oslo,        Norway      (CCSD(R12))
  Luca Frediani,               UiT The Arctic U. of NorwayNorway      (PCM)
  Emmanuel Fromager,           Univ. Strasbourg,          France      (MC-srDFT)
  Bin Gao,                     UiT The Arctic U. of NorwayNorway      (Gen1Int library)
  Andre S. P. Gomes,           CNRS/Universite de Lille,  France      (Frozen density embedding)
  Christof Haettig,            Ruhr-University Bochum,    Germany     (CC module)
  Kasper Hald,                 Aarhus University,         Denmark     (CC module)
  Asger Halkier,               Aarhus University,         Denmark     (CC module)
  Frederik Beyer Hansen,       University of Copenhagen,  Denmark     (Parallel AO-SOPPA)
  Erik D. Hedegaard,           Univ. of Southern Denmark, Denmark     (Polarizable embedding, QM/MM, and MC-srDFT)
  Hanne Heiberg,               University of Oslo,        Norway      (Geometry analysis, selected one-electron integrals)
  Trygve Helgaker,             University of Oslo,        Norway      (DALTON; ABACUS, ERI, DFT modules, London, and much more)
  Alf Christian Hennum,        University of Oslo,        Norway      (Parity violation)
  Hinne Hettema,               University of Auckland,    New Zealand (Quadratic response in RESPONS; SIRIUS supersymmetry)
  Andreas E. Hillers-Bendtsen, University of Copenhagen,  Denmark     (MP3)
  Eirik Hjertenaes,            NTNU,                      Norway      (Cholesky decomposition)
  Nicolai Machholdt Hoeyer,    Aarhus University,         Denmark     (MP3)
  Pi A. B. Haase,              University of Copenhagen,  Denmark     (Triplet AO-SOPPA)
  Maria Francesca Iozzi,       University of Oslo,        Norway      (RPA)
  Christoph Jacob,             TU Braunschweig            Germany     (Frozen density embedding)
  Brano Jansik,                Technical Univ. of Ostrava Czech Rep.  (DFT cubic response)
  Hans Joergen Aa. Jensen,     Univ. of Southern Denmark, Denmark     (DALTON; SIRIUS, RESPONS, ABACUS, MC-srDFT, and much more)
  Dan Jonsson,                 UiT The Arctic U. of NorwayNorway      (Cubic response in RESPONS module)
  Poul Joergensen,             Aarhus University,         Denmark     (RESPONS, ABACUS, and CC modules)
  Maciej Kaminski,             University of Warsaw,      Poland      (CPPh in RESPONS)
  Joanna Kauczor,              Linkoeping University,     Sweden      (Complex polarization propagator (CPP) module)
  Sheela Kirpekar,             Univ. of Southern Denmark, Denmark     (Mass-velocity & Darwin integrals)
  Frederik Oersted Kjeldal,    Technical Univ. of Denmark,Denmark     (MP3)
  Erik Kjellgren,              Univ. of Southern Denmark, Denmark     (MC-srDFT)
  Wim Klopper,                 KIT Karlsruhe,             Germany     (R12 code in CC, SIRIUS, and ABACUS modules)
  Stefan Knecht,               ETH Zurich,                Switzerland (Parallel CI and MCSCF, MC-srDFT)
  Rika Kobayashi,              Australian National Univ., Australia   (DIIS in CC, London in MCSCF)
  Henrik Koch,                 NTNU,                      Norway      (CC module, Cholesky decomposition)
  Jacob Kongsted,              Univ. of Southern Denmark, Denmark     (Polarizable embedding, polarizable density embedding, QM/MM)
  Andrea Ligabue,              University of Modena,      Italy       (CTOCD, AOSOPPA)
  Nanna H. List,               Univ. of Southern Denmark, Denmark     (Polarizable embedding)
  Ola B. Lutnaes,              University of Oslo,        Norway      (DFT Hessian)
  Juan I. Melo,                University of Buenos Aires,Argentina   (LRESC, Relativistic Effects on NMR Shieldings)
  Kurt V. Mikkelsen,           University of Copenhagen,  Denmark     (MC-SCRF, QM/MM, and MP3)
  Rolf H. Myhre,               NTNU,                      Norway      (Subsystems and CC3)
  Christian Neiss,             Univ. Erlangen-Nuernberg,  Germany     (CCSD(R12))
  Christian B. Nielsen,        University of Copenhagen,  Denmark     (QM/MM)
  Patrick Norman,              KTH Stockholm,             Sweden      (Cubic response and complex frequency response in RESPONS)
  Jeppe Olsen,                 Aarhus University,         Denmark     (SIRIUS CI/density modules)
  Jogvan Magnus H. Olsen,      Aarhus University,         Denmark     (Polarizable embedding and polarizable density embedding)
  Anders Osted,                Copenhagen University,     Denmark     (QM/MM)
  Martin J. Packer,            University of Sheffield,   UK          (SOPPA)
  Filip Pawlowski,             Kazimierz Wielki UniversityPoland      (CC3)
  Morten N. Pedersen,          Univ. of Southern Denmark, Denmark     (Polarizable embedding)
  Thomas B. Pedersen,          University of Oslo,        Norway      (Cholesky decomposition)
  Patricio F. Provasi,         University of Northeastern,Argentina   (Analysis of coupling constants in localized orbitals)
  Peter Reinholdt,             Univ. of Southern Denmark, Denmark     (Polarizable embedding and polarizable density embedding)
  Zilvinas Rinkevicius,        KTH Stockholm,             Sweden      (open-shell DFT, ESR)
  Elias Rudberg,               KTH Stockholm,             Sweden      (DFT grid and basis info)
  Torgeir A. Ruden,            University of Oslo,        Norway      (Numerical derivatives in ABACUS)
  Kenneth Ruud,                UiT The Arctic U. of NorwayNorway      (DALTON; ABACUS magnetic properties and much more)
  Pawel Salek,                 KTH Stockholm,             Sweden      (DALTON; DFT code)
  Claire C. M. Samson,         University of Karlsruhe    Germany     (Boys localization, r12 integrals in ERI)
  Alfredo Sanchez de Meras,    University of Valencia,    Spain       (CC module, Cholesky decomposition)
  Trond Saue,                  Paul Sabatier University,  France      (direct Fock matrix construction)
  Stephan P. A. Sauer,         University of Copenhagen,  Denmark     (SOPPA(CCSD), SOPPA prop., AOSOPPA, vibrational g-factors)
  Bernd Schimmelpfennig,       Forschungszentrum KarlsruheGermany     (AMFI module)
  Anna K. Schnack-Petersen,    University of Copenhagen,  Denmark     (RPA(D) and HRPA(D) properties in AOSOPPA)
  Kristian Sneskov,            Aarhus University,         Denmark     (Polarizable embedding, QM/MM)
  Arnfinn H. Steindal,         UiT The Arctic U. of NorwayNorway      (parallel QM/MM, polarizable embedding)
  Casper Steinmann,            Aalborg University,        Denmark     (QFIT, polarizable embedding)
  K. O. Sylvester-Hvid,        University of Copenhagen,  Denmark     (MC-SCRF)
  Peter R. Taylor,             VLSCI/Univ. of Melbourne,  Australia   (Symmetry handling ABACUS, integral transformation)
  Andrew M. Teale,             University of Nottingham,  England     (DFT-AC, DFT-D)
  David P. Tew,                University of Bristol,     England     (CCSD(R12))
  Julien Toulouse,             Sorbonne Univ.,            France      (MC-srDFT)
  Olav Vahtras,                KTH Stockholm,             Sweden      (Triplet response, spin-orbit, ESR, TDDFT, open-shell DFT)
  Lucas Visscher,              Vrije Universiteit AmsterdaNetherlands (Frozen density embedding)
  David J. Wilson,             La Trobe University,       Australia   (DFT Hessian and DFT magnetizabilities)
  Luna Zamok,                  University of Copenhagen,  Denmark     (Block Lanczos RPA solver in SOPPA module)
  Hans Agren,                  KTH Stockholm,             Sweden      (SIRIUS module, RESPONS, MC-SCRF solvation)
 --------------------------------------------------------------------------------

     Date and time (Linux)  : Mon Aug  1 13:59:35 2022
     Host name              : adm-110765.pc.sdu.dk                    

 * Work memory size             :    64000000 =  488.28 megabytes.

 * Directories for basis set searches:
   1) /home/hjj/progs/gitDalton_master/build_master-WIP2_myompi/test/energy_srTPSS_openshell
   2) /home/hjj/progs/gitDalton_master/build_master-WIP2_myompi/basis


Compilation information
-----------------------

 Who compiled             | hjj
 Host                     | adm-110765.pc.sdu.dk
 System                   | Linux-5.15.0-41-generic
 CMake generator          | Unix Makefiles
 Processor                | x86_64
 64-bit integers          | OFF
 MPI                      | ON
 Fortran compiler         | /home/hjj/my_libs/openmpi/bin/mpif90
 Fortran compiler version | GNU Fortran (Ubuntu 11.2.0-19ubuntu1) 11.2.0
 C compiler               | /home/hjj/my_libs/openmpi/bin/mpicc
 C compiler version       | gcc (Ubuntu 11.2.0-19ubuntu1) 11.2.0
 C++ compiler             | /home/hjj/my_libs/openmpi/bin/mpicxx
 C++ compiler version     | unknown
 BLAS                     | /usr/lib/x86_64-linux-gnu/libopenblas.so
 LAPACK                   | /usr/lib/x86_64-linux-gnu/liblapack.so
 Static linking           | OFF
 Last Git revision        | f63e026faccac4df20ea5914096621c383b74b40
 Git branch               | WIP-master
 Configuration time       | 2022-08-01 13:54:03.092008

 * Sequential calculation.


   Content of the .dal input file
 ----------------------------------

**DALTON INPUT
.RUN WAVE FUNCTION
.DIRECT
**INTEGRALS
*TWOINT
.DOSRINTEGRALS
.ERF
 0.4
**WAVE FUNCTIONS
.HFSRDFT
.MP2
.MCSRDFT
.SRFUN
 SRXTPSS SRCTPSS
*SCF INPUT
.DOUBLY OCCUPIED
 3 1 1 0
*CI VECTOR
.SELECT
 1
*CONFIGURATION INPUT
.SYMMETRY
 2
.SPIN MUL
 3
.INACTIVE
 3 0 0 0
.ELECTRONS
 4
.CAS SPACE
 1 1 2 0
**END OF DALTON INPUT


   Content of the .mol file
 ----------------------------

BASIS
MINI(Scaled)


Atomtypes=2 Angstrom
Charge=8.0 Atoms=1
O 0.000000    0.000000    0.118835
Charge=1.0 Atoms=2
H 0.000000    0.764176   -0.475338
H 0.000000   -0.764176   -0.475338


       *******************************************************************
       *********** Output from DALTON general input processing ***********
       *******************************************************************

 --------------------------------------------------------------------------------
   Overall default print level:    0
   Print level for DALTON.STAT:    1

    AO-direct calculation (in sections where implemented)
    HERMIT 1- and 2-electron integral sections will be executed
    "Old" integral transformation used (limited to max 255 basis functions)
    Wave function sections will be executed (SIRIUS module)
 --------------------------------------------------------------------------------


   ****************************************************************************
   *************** Output of molecule and basis set information ***************
   ****************************************************************************


    The two title cards from your ".mol" input:
    ------------------------------------------------------------------------
 1:                                                                         
 2:                                                                         
    ------------------------------------------------------------------------

  Coordinates are entered in Angstrom and converted to atomic units.
          - Conversion factor : 1 bohr = 0.52917721 A

  Atomic type no.    1
  --------------------
  Nuclear charge:   8.00000
  Number of symmetry independent centers:    1
  Number of basis sets to read;    2
  Basis set file used for this atomic type with Z =   8 :
     "/home/hjj/progs/gitDalton_master/build_master-WIP2_myompi/basis/MINI(Scaled)"

  Atomic type no.    2
  --------------------
  Nuclear charge:   1.00000
  Number of symmetry independent centers:    2
  Number of basis sets to read;    2
  Basis set file used for this atomic type with Z =   1 :
     "/home/hjj/progs/gitDalton_master/build_master-WIP2_myompi/basis/MINI(Scaled)"


                      SYMADD: Requested addition of symmetry
                      --------------------------------------

 Symmetry test threshold:  5.00E-06

@  The molecule has been centered at center of mass and rotated
@  so the principal axes of inertia are along coordinate axes.

 Symmetry class found: C(2v)          

 Symmetry Independent Centres             
 ----------------------------
O      8 :      0.00000000     0.00000000    -0.12566073  Isotope  1
H      1 :      0.00000000     1.44408335     0.99716351  Isotope  1

 The following symmetry elements were found:   X  Y     


                         SYMGRP: Point group information
                         -------------------------------

@    Full point group is: C(2v)          
@    Represented as:      C2v

@  * The irrep name for each symmetry:    1: A1     2: B1     3: B2     4: A2 

   * The point group was generated by:

      Reflection in the yz-plane
      Reflection in the xz-plane

   * Group multiplication table

        |  E   C2z  Oxz  Oyz
   -----+--------------------
     E  |  E   C2z  Oxz  Oyz
    C2z | C2z   E   Oyz  Oxz
    Oxz | Oxz  Oyz   E   C2z
    Oyz | Oyz  Oxz  C2z   E 

   * Character table

        |  E   C2z  Oxz  Oyz
   -----+--------------------
    A1  |   1    1    1    1
    B1  |   1   -1    1   -1
    B2  |   1   -1   -1    1
    A2  |   1    1   -1   -1

   * Direct product table

        | A1   B1   B2   A2 
   -----+--------------------
    A1  | A1   B1   B2   A2 
    B1  | B1   A1   A2   B2 
    B2  | B2   A2   A1   B1 
    A2  | A2   B2   B1   A1 


                                 Isotopic Masses
                                 ---------------

                           O          15.994915
                           H   _1      1.007825
                           H   _2      1.007825

                       Total mass:    18.010565 amu
                       Natural abundance:  99.730 %

 Center-of-mass coordinates (a.u.):    0.000000    0.000000    0.000000
 Center-of-mass coordinates (Angs):    0.000000    0.000000    0.000000


  Atoms and basis sets
  --------------------

  Number of atom types :    2
  Total number of atoms:    3

  Basis set used is "MINI(Scaled)" from the basis set library.

  label    atoms   charge   prim   cont     basis
  ----------------------------------------------------------------------
  O           1    8.0000    15     5      [6s3p|2s1p]                                        
  H           2    1.0000     3     1      [3s|1s]                                            
  ----------------------------------------------------------------------
  total:      3   10.0000    21     7
  ----------------------------------------------------------------------

  Threshold for neglecting AO integrals:  1.00D-12


  Cartesian Coordinates (a.u.)
  ----------------------------

  Total number of coordinates:    9
  O       :     1  x   0.0000000000    2  y   0.0000000000    3  z  -0.1256607264
  H   / 1 :     4  x   0.0000000000    5  y   1.4440833513    6  z   0.9971635144
  H   / 2 :     7  x   0.0000000000    8  y  -1.4440833513    9  z   0.9971635144


  Symmetry Coordinates
  --------------------

  Number of coordinates in each symmetry:     3    2    3    1

  Symmetry  A1  ( 1)

    1   O     z    3
    2   H     y    [  5  -    8 ]/2
    3   H     z    [  6  +    9 ]/2

  Symmetry  B1  ( 2)

    4   O     x    1
    5   H     x    [  4  +    7 ]/2

  Symmetry  B2  ( 3)

    6   O     y    2
    7   H     y    [  5  +    8 ]/2
    8   H     z    [  6  -    9 ]/2

  Symmetry  A2  ( 4)

    9   H     x    [  4  -    7 ]/2


   Interatomic separations (in Angstrom):
   --------------------------------------

            O           H   _1      H   _2
            ------      ------      ------
 O     :    0.000000
 H   _1:    0.967991    0.000000
 H   _2:    0.967991    1.528352    0.000000


  Max    interatomic separation is    1.5284 Angstrom (    2.8882 Bohr)
  between atoms    3 and    2, "H   _2" and "H   _1".

  Min HX interatomic separation is    0.9680 Angstrom (    1.8292 Bohr)


  Bond distances (Angstrom):
  --------------------------

                  atom 1     atom 2       distance
                  ------     ------       --------
  bond distance:  H   _1     O            0.967991
  bond distance:  H   _2     O            0.967991


  Bond angles (degrees):
  ----------------------

                  atom 1     atom 2     atom 3         angle
                  ------     ------     ------         -----
  bond angle:     H   _1     O          H   _2       104.267




 Principal moments of inertia (u*A**2) and principal axes
 --------------------------------------------------------

   IA       0.631969          0.000000    1.000000    0.000000
   IB       1.177069          0.000000    0.000000    1.000000
   IC       1.809038          1.000000    0.000000    0.000000


 Rotational constants
 --------------------

@    The molecule is planar.

               A                   B                   C

         799689.9693         429353.7755         279363.4555 MHz
           26.674786           14.321700            9.318562 cm-1


@  Nuclear repulsion energy :    9.093052777509 Hartree


  Symmetry Orbitals
  -----------------

  Number of orbitals in each symmetry:           4    1    2    0


  Symmetry  A1 ( 1)

    1     O        1s         1
    2     O        1s         2
    3     O        2pz        5
    4     H        1s         6 +    7


  Symmetry  B1 ( 2)

    5     O        2px        3


  Symmetry  B2 ( 3)

    6     O        2py        4
    7     H        1s         6 -    7


  No orbitals in symmetry  A2 ( 4)

  Symmetries of electric field:  B1 (2)  B2 (3)  A1 (1)

  Symmetries of magnetic field:  B2 (3)  B1 (2)  A2 (4)


                     .---------------------------------------.
                     | Starting in Integral Section (HERMIT) |
                     `---------------------------------------'



 ***************************************************************************************
 ****************** Output from **INTEGRALS input processing (HERMIT) ******************
 ***************************************************************************************



    *************************************************************************
    ****************** Output from HERMIT input processing ******************
    *************************************************************************


 Default print level:        1

 Calculation of one-electron Hamiltonian integrals.

 Center of mass  (bohr):      0.000000000000      0.000000000000      0.000000000000
 Operator center (bohr):      0.000000000000      0.000000000000      0.000000000000
 Gauge origin    (bohr):      0.000000000000      0.000000000000      0.000000000000
 Dipole origin   (bohr):      0.000000000000      0.000000000000      0.000000000000
 INFO: .DOSRIN option is obsolete


  Set-up from HR2INP:
  -------------------

 Print level in TWOINT:    1

 srDFT-hybrid : Using an Erf type two-elec. operator
                with the coupling parameter :    0.40000
 * Direct calculation of Fock matrices in AO-basis.
 * Program controlled screening thresholds used for this.
 * Separate density screening of Coulomb integral batches
 * Separate density screening of exchange integral batches


     ************************************************************************
     ************************** Output from HERINT **************************
     ************************************************************************



                      Nuclear contribution to dipole moments
                      --------------------------------------

                 au               Debye          C m (/(10**-30)

      z      0.98904122         2.51389186         8.38544065


  Total CPU  time used in HERMIT:   0.03 seconds
  Total wall time used in HERMIT:   0.00 seconds


                        .----------------------------------.
                        | End of Integral Section (HERMIT) |
                        `----------------------------------'



                   .--------------------------------------------.
                   | Starting in Wave Function Section (SIRIUS) |
                   `--------------------------------------------'


 mu value for srDFT is 0.40 (user input)

 *** Output from Huckel module :

     Using EWMO model:          F
     Using EHT  model:          T
     Number of Huckel orbitals each symmetry:    4    1    2    0

 Huckel EHT eigenvalues for symmetry :  1
          -20.704599      -1.501427      -0.671220      -0.295546

 Huckel EHT eigenvalues for symmetry :  2
           -0.616200

 Huckel EHT eigenvalues for symmetry :  3
           -0.730742      -0.260166

 SETCI, core memory needed for CI:
 LCINDX =         207
 LACIMX =         274
 LBCIMX =           0

 Number of determinants:             6

 Number of configurations:           5

 Time used in SETCI :      0.65s

 **********************************************************************
 *SIRIUS* a direct, restricted step, second order MCSCF program       *
 **********************************************************************

 
     Date and time (Linux)  : Mon Aug  1 13:59:35 2022
     Host name              : adm-110765.pc.sdu.dk                    

 Title lines from ".mol" input file:
                                                                             
                                                                             

 Print level on unit LUPRI =   2 is   0
 Print level on unit LUW4  =   2 is   5

@    MC-srDFT optimization.
@              Type: complete active space calculation (CAS).

@    This is a combination run starting with
@              a restricted, closed shell HF-srDFT hybrid calculation
@              an MP2 calculation

 Fock matrices are calculated directly without use of integrals on disk.

 Initial molecular orbitals are obtained according to
 ".MOSTART EHT   " input option

     Wave function specification
     ============================
@    Wave function type        --- MC-srDFT ---
@    Number of closed shell electrons           6
@    Number of electrons in active shells       4
@    Total charge of the molecule               0

@    Spin multiplicity and 2 M_S                3         2
@    Total number of symmetries                 4 (point group: C2v)
@    Reference state symmetry                   2 (irrep name : B1 )

@    This is a lrWFT-srDFT calculation using the 
@      SRXTPSS                 short range exchange functional
@      SRCTPSS                 short range correlation functional

@    sr-DFT and exact sr-HF exchange weights:    1.000000    0.000000

     Orbital specifications
     ======================
@    Abelian symmetry species          All |    1    2    3    4
@                                          |  A1   B1   B2   A2 
                                       --- |  ---  ---  ---  ---
@    Inactive orbitals                   3 |    3    0    0    0
@    Active orbitals                     4 |    1    1    2    0
@    Secondary orbitals                  0 |    0    0    0    0
@    Total number of orbitals            7 |    4    1    2    0
@    Number of basis functions           7 |    4    1    2    0

      -- Initial occupation of symmetries is determined from user input.                      
      -- Initial occupation of symmetries is :
@    Occupied SCF orbitals               5 |    3    1    1    0

     Optimization information
     ========================
@    Number of configurations                 5
@    Number of orbital rotations              3
     ------------------------------------------
@    Total number of variables                8

     Maximum number of macro iterations      25
     Maximum number of micro iterations     600
     Threshold for MCSCF gradient      1.00D-05
     Number of initial trial vectors          1
     Number of initial CI iterations         -1
     Number of simultaneous trial vectors     1

@    This calculation converges to the lowest state for the specified symmetry and spin species.

     Maximum number of NEO/NR iterations  24


 ***********************************************
 ***** DIIS acceleration of SCF iterations *****
 ***********************************************

 C1-DIIS algorithm; max error vectors =    3

 Iter      Total energy        Error norm    Delta(E)  DIIS dim.
 -----------------------------------------------------------------------------

***  INFO  GETGAB: GABSRXXX not found on AOPROPER. Regenerating.
** Atom O   
* Grid spacing
 Value chosen:  0.131
 AH =    563.73316000000000     
 RADERR =    1.0000000000000000E-013
* Inner grid point: 3.68284E-06
* Outer point:
 Value chosen:     7.417
 Constant c: 2.62690E-05
 Number of points:    96
O     1   19128      96     434
** Atom H   
* Grid spacing
 Value chosen:  0.142
 AH =    14.068125999999999     
 RADERR =    1.0000000000000000E-013
* Inner grid point: 2.33132E-05
* Outer point:
 Value chosen:     8.165
 Constant c: 1.52850E-04
 Number of points:    77
H     2   18274      77     434

   Number of grid points in quadrature:     37402 (100.0%)


   Ex-sr                                 -7.0240287225
   Ec-sr                                 -0.3076583741
   Ex-sr + Ec-sr                         -7.3316870966
 + EJsr = sr Coulomb energy              27.7937979742
 = Total E(srDFT)                        20.4621108776


 Corrections needed for correct CI energy evaluation:
 - 0.5 Tr(Vxc-sr Dcore)                   5.0663086393
 -     Tr(Vxc-sr Dval)                    0.0000000000
 - 0.5 Tr( (Jsr+HFXFAC*Ksr) Dval )        0.0000000000
   1  Screening settings (-IFTHRS, JTDIIS, DIFDEN, times)   -5    1    F  3.35D-01  1.80D-01
@  1    -75.8203199670        1.76753D+00   -7.58D+01    1
      Virial theorem: -V/T =      1.999276
@    MULPOP   O      -0.50; H   _1  0.25; H   _2  0.25; 
   1  Level shift: doubly occupied orbital energies shifted by -2.00D-01
 -----------------------------------------------------------------------------

   Ex-sr                                 -7.0406706921
   Ec-sr                                 -0.3087466899
   Ex-sr + Ec-sr                         -7.3494173820
 + EJsr = sr Coulomb energy              27.9558417736
 = Total E(srDFT)                        20.6064243916


 Corrections needed for correct CI energy evaluation:
 - 0.5 Tr(Vxc-sr Dcore)                   5.0786277378
 -     Tr(Vxc-sr Dval)                    0.0000000000
 - 0.5 Tr( (Jsr+HFXFAC*Ksr) Dval )        0.0000000000
   2  Screening settings (-IFTHRS, JTDIIS, DIFDEN, times)   -6    2    F  1.55D-01  1.56D-01
@  2    -75.8930693361        2.08483D-01   -7.27D-02    2
      Virial theorem: -V/T =      2.000529
@    MULPOP   O      -0.61; H   _1  0.31; H   _2  0.31; 
   2  Level shift: doubly occupied orbital energies shifted by -5.00D-02
 -----------------------------------------------------------------------------

   Ex-sr                                 -7.0376280719
   Ec-sr                                 -0.3082678615
   Ex-sr + Ec-sr                         -7.3458959335
 + EJsr = sr Coulomb energy              27.8778673240
 = Total E(srDFT)                        20.5319713905


 Corrections needed for correct CI energy evaluation:
 - 0.5 Tr(Vxc-sr Dcore)                   5.0760695896
 -     Tr(Vxc-sr Dval)                    0.0000000000
 - 0.5 Tr( (Jsr+HFXFAC*Ksr) Dval )        0.0000000000
   3  Screening settings (-IFTHRS, JTDIIS, DIFDEN, times)   -7    3    F  1.51D-01  1.51D-01
@  3    -75.8979330916        4.54227D-02   -4.86D-03    3
      Virial theorem: -V/T =      2.000130
@    MULPOP   O      -0.59; H   _1  0.30; H   _2  0.30; 
   3  Level shift: doubly occupied orbital energies shifted by -1.25D-02
 -----------------------------------------------------------------------------

   Ex-sr                                 -7.0419060899
   Ec-sr                                 -0.3083895301
   Ex-sr + Ec-sr                         -7.3502956200
 + EJsr = sr Coulomb energy              27.9057667196
 = Total E(srDFT)                        20.5554710996


 Corrections needed for correct CI energy evaluation:
 - 0.5 Tr(Vxc-sr Dcore)                   5.0790285902
 -     Tr(Vxc-sr Dval)                    0.0000000000
 - 0.5 Tr( (Jsr+HFXFAC*Ksr) Dval )        0.0000000000
   4  Screening settings (-IFTHRS, JTDIIS, DIFDEN, times)   -7    4    F  1.51D-01  1.51D-01
@  4    -75.8981473162        8.37983D-03   -2.14D-04    3
      Virial theorem: -V/T =      1.999471
@    MULPOP   O      -0.60; H   _1  0.30; H   _2  0.30; 
 -----------------------------------------------------------------------------

   Ex-sr                                 -7.0407242524
   Ec-sr                                 -0.3083263534
   Ex-sr + Ec-sr                         -7.3490506058
 + EJsr = sr Coulomb energy              27.8933673571
 = Total E(srDFT)                        20.5443167513


 Corrections needed for correct CI energy evaluation:
 - 0.5 Tr(Vxc-sr Dcore)                   5.0781747292
 -     Tr(Vxc-sr Dval)                    0.0000000000
 - 0.5 Tr( (Jsr+HFXFAC*Ksr) Dval )        0.0000000000
   5  Screening settings (-IFTHRS, JTDIIS, DIFDEN, times)   -8    5    F  1.51D-01  1.52D-01
@  5    -75.8981551309        2.09079D-03   -7.81D-06    3
      Virial theorem: -V/T =      1.999570
@    MULPOP   O      -0.60; H   _1  0.30; H   _2  0.30; 
 -----------------------------------------------------------------------------

   Ex-sr                                 -7.0409055591
   Ec-sr                                 -0.3083340594
   Ex-sr + Ec-sr                         -7.3492396185
 + EJsr = sr Coulomb energy              27.8947755655
 = Total E(srDFT)                        20.5455359470


 Corrections needed for correct CI energy evaluation:
 - 0.5 Tr(Vxc-sr Dcore)                   5.0783024358
 -     Tr(Vxc-sr Dval)                    0.0000000000
 - 0.5 Tr( (Jsr+HFXFAC*Ksr) Dval )        0.0000000000
   6  Screening settings (-IFTHRS, JTDIIS, DIFDEN, times)   -8    6    F  1.51D-01  1.51D-01
@  6    -75.8981557841        5.41464D-04   -6.53D-07    3
      Virial theorem: -V/T =      1.999546
@    MULPOP   O      -0.60; H   _1  0.30; H   _2  0.30; 
 -----------------------------------------------------------------------------

   Ex-sr                                 -7.0409004399
   Ec-sr                                 -0.3083334988
   Ex-sr + Ec-sr                         -7.3492339388
 + EJsr = sr Coulomb energy              27.8946116084
 = Total E(srDFT)                        20.5453776697


 Corrections needed for correct CI energy evaluation:
 - 0.5 Tr(Vxc-sr Dcore)                   5.0782980828
 -     Tr(Vxc-sr Dval)                    0.0000000000
 - 0.5 Tr( (Jsr+HFXFAC*Ksr) Dval )        0.0000000000
   7  Screening settings (-IFTHRS, JTDIIS, DIFDEN, times)   -8    7    F  1.51D-01  1.51D-01
@  7    -75.8981558420        4.15576D-05   -5.80D-08    3

@ *** DIIS converged in   7 iterations !
@     Converged SCF energy, gradient:    -75.898155842034    4.16D-05
    - total time used in SIRFCK :              0.00 seconds

 --- Writing SIRIFC interface file

--------------------------------------------------------------------------------


     .----------------------------------------------------.
     | HF-srDFT KT IPs [a.u. & eV] from Koopmans' theorem |
     `----------------------------------------------------'


     HF-srDFT KT symmetry 1 ( A1 ) in point group C2v -- 3 principal poles with pole strength 1

   ============  ============  ============
      18.833495      1.114659      0.425978
     512.485481     30.331427     11.591464
   ============  ============  ============

     HF-srDFT KT symmetry 2 ( B1 ) in point group C2v -- 1 principal poles with pole strength 1

   ============
       0.364245
       9.911624
   ============

     HF-srDFT KT symmetry 3 ( B2 ) in point group C2v -- 1 principal poles with pole strength 1

   ============
       0.615340
      16.744248
   ============

@ Summary of HF-srDFT KT ionization potentials [eV]:

@ Symmetry 1 (A1 ) :   512.485      30.331      11.591

@ Symmetry 2 (B1 ) :     9.912

@ Symmetry 3 (B2 ) :    16.744

@ Symmetry 4 (A2 ) :  No IPs in this symmetry

  === End of HF-srDFT KT output ===
--------------------------------------------------------------------------------


 CPU and wall time for SCF :       1.248       1.092


WARNING - DFT spin density is not implemented in MP2 module and is ignored.


 ----- Output from SIRIUS MP2 module -----

 Reference: H.J.Aa.Jensen, P.Jørgensen, H.Ågren, and J.Olsen,
            J. Chem. Phys. 88, 3834 (1988); 89, 5354 (1988)

 Checking that the closed shell orbitals are canonical Hartree-Fock orbitals

    Number of electrons  :   10
    Closed shell orbitals:    3    1    1    0

 Generating Fock matrix

   Ex-sr                                 -7.0409004399
   Ec-sr                                 -0.3083334988
   Ex-sr + Ec-sr                         -7.3492339388
 + EJsr = sr Coulomb energy              27.8946116084
 = Total E(srDFT)                        20.5453776697


 Corrections needed for correct CI energy evaluation:
 - 0.5 Tr(Vxc-sr Dcore)                   5.0782980828
 -     Tr(Vxc-sr Dval)                    0.0000000000
 - 0.5 Tr( (Jsr+HFXFAC*Ksr) Dval )        0.0000000000

 Hartree-Fock electronic energy:         -84.991208619543
 Hartree-Fock total      energy:         -75.898155842034

 Hartree-Fock orbital energies, symmetry 1 ( A1 ),    3 occupied SCF orbitals

       -18.83349545    -1.11465947    -0.42597849     0.45647942

 Hartree-Fock orbital energies, symmetry 2 ( B1 ),    1 occupied SCF orbitals

        -0.36424549

 Hartree-Fock orbital energies, symmetry 3 ( B2 ),    1 occupied SCF orbitals

        -0.61533981     0.53213065

    E(LUMO) :     0.45647942   (in symmetry 1)
  - E(HOMO) :    -0.36424549   (in symmetry 2)
  --------------------------
    gap     :     0.82072491

---> (Re)generating AOTWOINT
---> and (re)generating AOSR2INT


     ************************************************************************
     ************************** Output from HERINT **************************
     ************************************************************************


 Threshold for neglecting two-electron integrals:  1.00D-12
 HERMIT - Number of two-electron integrals written:         138 ( 34.0% )
 HERMIT - Megabytes written:                              0.007


 Threshold for neglecting two-electron integrals:  1.00D-12
 HERMIT - Number of two-electron integrals written:         138 ( 34.0% )
 HERMIT - Megabytes written:                              0.007


 2-el. integral transformation level 5: Total CPU and WALL times (sec)       0.002       0.002

 MP2 move   0.000505 electrons to unoccupied HF orbitals


@   Short-range Hartree-Fock total energy        :           -75.8981558420
@   + MP2 contribution from long-range integrals :            -0.0005454956
@   = short-range MP2 second order energy        :           -75.8987013376

 *******************************************************
 MP2-SRDFT natural orbitals: Short-range self-consistent
 contributions are NOT taken into account.
 *******************************************************

 Natural orbital occupation numbers, symmetry 1 (irrep A1 )
 Sum =     6.00004105; RHF =     6.00000000; Difference =     0.00004105

         2.00000000     1.99998928     1.99980649     0.00024529

 Natural orbital occupation numbers, symmetry 2 (irrep B1 )
 Sum =     1.99999992; RHF =     2.00000000; Difference =    -0.00000008

         1.99999992

 Natural orbital occupation numbers, symmetry 3 (irrep B2 )
 Sum =     1.99995903; RHF =     2.00000000; Difference =    -0.00004097

         1.99969927     0.00025977

 Time used for MP2 natural orbitals :       0.153 CPU seconds,       0.153 wall seconds.

 CPU and wall time for MP2 :       0.153       0.153


        SIRIUS MC-srDFT optimization (SIROPT)
 ================================================


 Fock matrix screening setting for SIRCNO: IFTHRS =    9

   --- OUTPUT FROM SIRCNO     Keyword = FD+NO 


   Ex-sr                                 -6.9562443050
   Ec-sr                                 -0.2980585283
   Ex-sr + Ec-sr                         -7.2543028333
 + EJsr = sr Coulomb energy              26.6973795174
 = Total E(srDFT)                        19.4430766840


 Corrections needed for correct CI energy evaluation:
 - 0.5 Tr(Vxc-sr Dcore)                   4.0721983896
 -     Tr(Vxc-sr Dval)                    1.8785190612
 - 0.5 Tr( (Jsr+HFXFAC*Ksr) Dval )       -6.2897340866

 Occupations of CAS natural orbitals:

 Symmetry  1 ( irrep A1  in C2v )

   1.000000000

 Symmetry  2 ( irrep B1  in C2v )

   1.000000000

 Symmetry  3 ( irrep B2  in C2v )

   2.000000000   0.000000000


 --- MACRO ITERATION  1 ---
 --------------------------

 2-el. integral transformation level 3: Total CPU and WALL times (sec)       0.000       0.000

 Fock matrix screening setting for this macro iteration: 10^( -9)

   Ex-sr                                 -7.0302081136
   Ec-sr                                 -0.2900576551
   Ex-sr + Ec-sr                         -7.3202657687
 + EJsr = sr Coulomb energy              26.6973795174
 = Total E(srDFT)                        19.3771137486


 Corrections needed for correct CI energy evaluation:
 - 0.5 Tr(Vxc-sr Dcore)                   4.0632278761
 -     Tr(Vxc-sr Dval)                    1.8532763031
 - 0.5 Tr( (Jsr+HFXFAC*Ksr) Dval )       -6.2897340866

 Total MC-srDFT energy    :           -75.416459440395514  (MACRO    1)

 - Nuclear repulsion      :             9.093052777509254
 - Inactive energy        :           -72.925110981311704
 - Active energy          :            -3.890905560362465
 - srDFT effective energy :            -7.693495676230601

 Norm of total gradient   :             0.346636062524
 -    of CI gradient      :             0.317514915889
 -    of orbital gradient :             0.139071341513
      Virial theorem: -V/T =      1.985935
@    MULPOP   O       0.10; H   _1 -0.05; H   _2 -0.05; 

 Residual norm when dim(red L) =   5
 NEO root     CSF        orbital          total
    1     0.00916332     0.00136834     0.00926493 converged

 (NEONEX) NEO vector is converged.

   --- OUTPUT FROM SIRCNO     Keyword = FD+NO 


   Ex-sr                                 -7.0155505430
   Ec-sr                                 -0.3010127350
   Ex-sr + Ec-sr                         -7.3165632780
 + EJsr = sr Coulomb energy              27.3245111868
 = Total E(srDFT)                        20.0079479088


 Corrections needed for correct CI energy evaluation:
 - 0.5 Tr(Vxc-sr Dcore)                   4.0940875200
 -     Tr(Vxc-sr Dval)                    1.9196950105
 - 0.5 Tr( (Jsr+HFXFAC*Ksr) Dval )       -6.5560707177

 Occupations of CAS natural orbitals:

 Symmetry  1 ( irrep A1  in C2v )

   1.000000000

 Symmetry  2 ( irrep B1  in C2v )

   1.000000000

 Symmetry  3 ( irrep B2  in C2v )

   1.998867610   0.001132390


 --- MACRO ITERATION  2 ---
 --------------------------

 2-el. integral transformation level 3: Total CPU and WALL times (sec)       0.000       0.000

 Fock matrix screening setting for this macro iteration: 10^( -9)

   Ex-sr                                 -7.0900833117
   Ec-sr                                 -0.2929434548
   Ex-sr + Ec-sr                         -7.3830267664
 + EJsr = sr Coulomb energy              27.3245111868
 = Total E(srDFT)                        19.9414844204


 Corrections needed for correct CI energy evaluation:
 - 0.5 Tr(Vxc-sr Dcore)                   4.0853405291
 -     Tr(Vxc-sr Dval)                    1.8935393698
 - 0.5 Tr( (Jsr+HFXFAC*Ksr) Dval )       -6.5560707177

 Total MC-srDFT energy    :           -75.439112504383090  (MACRO    2)

 - Nuclear repulsion      :             9.093052777509254
 - Inactive energy        :           -72.814298005100298
 - Active energy          :            -3.757649691567003
 - srDFT effective energy :            -7.960217585225058

 Norm of total gradient   :             0.021545389461
 -    of CI gradient      :             0.021152015607
 -    of orbital gradient :             0.004098297546
      Virial theorem: -V/T =      1.980301
@    MULPOP   O      -0.14; H   _1  0.07; H   _2  0.07; 

 Residual norm when dim(red L) =   5
 NEO root     CSF        orbital          total
    1     0.00030382     0.00008979     0.00031681 converged

 (NEONEX) NEO vector is converged.

   --- OUTPUT FROM SIRCNO     Keyword = FD+NO 


   Ex-sr                                 -7.0150684085
   Ec-sr                                 -0.3009803515
   Ex-sr + Ec-sr                         -7.3160487600
 + EJsr = sr Coulomb energy              27.3195631267
 = Total E(srDFT)                        20.0035143667


 Corrections needed for correct CI energy evaluation:
 - 0.5 Tr(Vxc-sr Dcore)                   4.0945097571
 -     Tr(Vxc-sr Dval)                    1.9181499853
 - 0.5 Tr( (Jsr+HFXFAC*Ksr) Dval )       -6.5483663572

 Occupations of CAS natural orbitals:

 Symmetry  1 ( irrep A1  in C2v )

   1.000000000

 Symmetry  2 ( irrep B1  in C2v )

   1.000000000

 Symmetry  3 ( irrep B2  in C2v )

   1.998538916   0.001461084


 --- MACRO ITERATION  3 ---
 --------------------------

 2-el. integral transformation level 3: Total CPU and WALL times (sec)       0.000       0.000

 Fock matrix screening setting for this macro iteration: 10^( -9)

   Ex-sr                                 -7.0896603677
   Ec-sr                                 -0.2929075184
   Ex-sr + Ec-sr                         -7.3825678861
 + EJsr = sr Coulomb energy              27.3195631267
 = Total E(srDFT)                        19.9369952406


 Corrections needed for correct CI energy evaluation:
 - 0.5 Tr(Vxc-sr Dcore)                   4.0857757743
 -     Tr(Vxc-sr Dval)                    1.8919301381
 - 0.5 Tr( (Jsr+HFXFAC*Ksr) Dval )       -6.5483663572

 Total MC-srDFT energy    :           -75.439191083932897  (MACRO    3)

 - Nuclear repulsion      :             9.093052777509254
 - Inactive energy        :           -72.820745346036745
 - Active energy          :            -3.758270184545079
 - srDFT effective energy :            -7.953228330860324

 Norm of total gradient   :             0.000338280309
 -    of CI gradient      :             0.000326696541
 -    of orbital gradient :             0.000087766381
      Virial theorem: -V/T =      1.980363
@    MULPOP   O      -0.14; H   _1  0.07; H   _2  0.07; 

 Residual norm when dim(red L) =   5
 NEO root     CSF        orbital          total
    1     0.00000469     0.00000152     0.00000493 converged

 (NEONEX) NEO vector is converged.

   --- OUTPUT FROM SIRCNO     Keyword = FD+NO 


   Ex-sr                                 -7.0150237422
   Ec-sr                                 -0.3009779943
   Ex-sr + Ec-sr                         -7.3160017365
 + EJsr = sr Coulomb energy              27.3190765168
 = Total E(srDFT)                        20.0030747802


 Corrections needed for correct CI energy evaluation:
 - 0.5 Tr(Vxc-sr Dcore)                   4.0945136959
 -     Tr(Vxc-sr Dval)                    1.9180778567
 - 0.5 Tr( (Jsr+HFXFAC*Ksr) Dval )       -6.5479893647

 Occupations of CAS natural orbitals:

 Symmetry  1 ( irrep A1  in C2v )

   1.000000000

 Symmetry  2 ( irrep B1  in C2v )

   1.000000000

 Symmetry  3 ( irrep B2  in C2v )

   1.998540710   0.001459290


 --- MACRO ITERATION  4 ---
 --------------------------

 2-el. integral transformation level 3: Total CPU and WALL times (sec)       0.000       0.000

 Fock matrix screening setting for this macro iteration: 10^( -9)

   Ex-sr                                 -7.0896143923
   Ec-sr                                 -0.2929053589
   Ex-sr + Ec-sr                         -7.3825197512
 + EJsr = sr Coulomb energy              27.3190765168
 = Total E(srDFT)                        19.9365567655


 Corrections needed for correct CI energy evaluation:
 - 0.5 Tr(Vxc-sr Dcore)                   4.0857799843
 -     Tr(Vxc-sr Dval)                    1.8918584163
 - 0.5 Tr( (Jsr+HFXFAC*Ksr) Dval )       -6.5479893647

 Total MC-srDFT energy    :           -75.439191106078397  (MACRO    4)

 - Nuclear repulsion      :             9.093052777509254
 - Inactive energy        :           -72.821005746798363
 - Active energy          :            -3.758367421493523
 - srDFT effective energy :            -7.952870715295767

 Norm of total gradient   :             0.000005081450
 -    of CI gradient      :             0.000004920583
 -    of orbital gradient :             0.000001268462
      Virial theorem: -V/T =      1.980368
@    MULPOP   O      -0.14; H   _1  0.07; H   _2  0.07; 

 *** Optimization control: MC-srDFT converged ***
     Number of macro iterations used            4
     Number of micro iterations used           12
     Total number of CPU seconds used         7.74
     Total WALL time used (seconds)           7.74

--------------------------------------------------------------------------------


     .------------------------------------------------------------------.
     | MC-srDFT EKT IPs [a.u. & eV], pole strengths, and Dyson orbitals |
     `------------------------------------------------------------------'


     MC-srDFT EKT symmetry 1 ( A1 ) in point group C2v -- 3 principal poles

   ============  ============  ============  ============
      18.949515      1.155495      0.526712     -0.079820
     515.642536     31.442627     14.332574     -2.172022
   ------------  ------------  ------------  ------------
       1.000000      0.999635      0.999998     -0.500368
   ============  ============  ============  ============
       1.000000     -0.000025      0.000010      0.000478
      -0.000038     -0.999634      0.000760      0.027034
      -0.000011      0.000819      0.999997      0.002180
      -0.000338      0.019115     -0.001557      0.706847
   ============  ============  ============  ============

     MC-srDFT EKT symmetry 2 ( B1 ) in point group C2v -- 1 principal poles

   ============
       0.554668
      15.093272
   ------------
       0.500000
   ============
       0.707107
   ============

     MC-srDFT EKT symmetry 3 ( B2 ) in point group C2v -- 1 principal poles

   ============  ============
       0.647244      0.797129
      17.612409     21.690973
   ------------  ------------
       0.985812      0.014188
   ============  ============
       0.992876      0.116050
      -0.003136      0.026829
   ============  ============

@ Summary of MC-srDFT EKT ionization potentials [eV] and pole strengths:

@ Symmetry 1 (A1 ) :   515.643      31.443      14.333      -2.172
@ Pole strengths   :     1.000       1.000       1.000      -0.500

@ Symmetry 2 (B1 ) :    15.093
@ Pole strengths   :     0.500

@ Symmetry 3 (B2 ) :    17.612      21.691
@ Pole strengths   :     0.986       0.014

@ Symmetry 4 (A2 ) :  No IPs in this symmetry

  === End of MC-srDFT EKT output ===
--------------------------------------------------------------------------------


 CPU and wall time for MCSCF :       7.743       7.743


                     .----------------------------------------.
                     | --- SIRIUS OPTIMIZATION STATISTICS --- |
                     `----------------------------------------'


 
     Date and time (Linux)  : Mon Aug  1 13:59:44 2022
     Host name              : adm-110765.pc.sdu.dk                    


  ITER ITMIC     EMCSCF           GRDNRM        RATIO      STPLNG
 ---------------------------------------------------------------------
    1    4    -75.416459440396   0.3466360625  0.000000   0.1352064506
    2    4    -75.439112504383   0.0215453895  0.993160   0.0077210701
    3    4    -75.439191083933   0.0003382803  1.000336   0.0001374430
    4    0    -75.439191106078   0.0000050814  1.001839   0.0000000000


  ITER  INDGCM  GCIMAX      GCINRM     INDGOM  GOBMAX      GOBNRM      GRDNRM
 ------------------------------------------------------------------------------
    1      3    0.282254    0.317515      3    0.119620    0.139071    0.346636
    2      2    0.020295    0.021152      3    0.003492    0.004098    0.021545
    3      3   -0.000258    0.000327      1   -0.000087    0.000088    0.000338
    4      2    0.000004    0.000005      1   -0.000001    0.000001    0.000005


  ITER ITMIC NCLIN NOLIN   TIMMAC    TIMITR    TIMMIC    TIMLIN    TIMMIC/ITMIC
 ------------------------------------------------------------------------------

    1     4     2     2      2.46      0.00      2.17      2.02      0.54
    2     4     2     2      2.44      0.00      2.16      2.01      0.54
    3     4     2     2      2.42      0.00      2.14      2.00      0.54
    4     0     0     0      0.28      0.00      0.00      0.00


 ITER         EMY                 EACTIV              EMCSCF

    1    -80.618606657542     -3.890905560362    -75.416459440396
    2    -80.774515590325     -3.757649691567    -75.439112504383
    3    -80.773973676897     -3.758270184545    -75.439191083933
    4    -80.773876462094     -3.758367421494    -75.439191106078


 ITER         DEPRED              DEACT               RATIO

    1      0.000000000000      0.000000000000      0.000000000000
    2     -0.022809078191     -0.022653063988      0.993159995246
    3     -0.000078553159     -0.000078579550      1.000335960938
    4     -0.000000022105     -0.000000022145      1.001838720033


 ITER    BETA           GAMMA             STPLNG              RTRUST

    1      0.20000000  1.00000000      0.135206450618      0.700000000000
    2      0.20000000  1.00000000      0.007721070104      0.700000000000
    3      0.20000000  1.00000000      0.000137442979      0.700000000000
    4      0.00000000  0.00000000      0.000000000000      0.700000000000


 Reduced L root no.  1
 ITER         EVAL              EVEC(1)           EVEC(2)           EVEC(3)
 ----------------------------------------------------------------------------
    1   -0.001823392933    0.999634584704   -0.024595226410   -0.010766735065
    2   -0.000006284238    0.999998807704   -0.001309748596   -0.000601036010
    3   -0.000000001768    0.999999999622   -0.000026395464   -0.000004659074
    4    0.000000000000    0.000000000000    0.000000000000    0.000000000000


                       .-----------------------------------.
                       | --- Final results from SIRIUS --- |
                       `-----------------------------------'


@    Spin multiplicity:           3
@    Spatial symmetry:            2 ( irrep  B1  in C2v )
@    Total charge of molecule:    0

@    This was an MC-srDFT calculation with mu =   0.400
@    State number:                1

@    Final MC-SRDFT energy:       -75.439191106078                 
@    Nuclear repulsion:             9.093052777509
@    Electronic energy:           -84.532243883588

@    Final gradient norm:           0.000005081450

 
     Date and time (Linux)  : Mon Aug  1 13:59:44 2022
     Host name              : adm-110765.pc.sdu.dk                    

 Occupancies of natural orbitals
 -------------------------------

 Symmetry 1  ( A1 ) -- Total occupation in this symmetry is   7.000000000

   2.000000000   2.000000000   2.000000000   1.000000000

  Effective numbers of unpaired electrons this symmetry Eqs. 1) and 2):  1.00  1.00

 Symmetry 2  ( B1 ) -- Total occupation in this symmetry is   1.000000000

   1.000000000

  Effective numbers of unpaired electrons this symmetry Eqs. 1) and 2):  1.00  1.00

 Symmetry 3  ( B2 ) -- Total occupation in this symmetry is   2.000000000

   1.998540710   0.001459290

  Effective numbers of unpaired electrons this symmetry Eqs. 1) and 2):  0.01  0.00

 Symmetry 4  ( A2 ) -- No occupied orbitals

  Total effective number of unpaired electrons :
  Eq. 1) sum(i) [(2 - n_i) n_i]    =  2.0058
  Eq. 2) sum(i) [(2 - n_i) n_i]**2 =  2.0000
 (Reference: M. Head-Gordon, Chemical Physics Letters 372 (2003) 508–511)

File label for MO orbitals:   1Aug22   (CNOORB)

 (Only coefficients > 0.0100 are printed.)

 Molecular orbitals for symmetry species 1  (A1 )
 ------------------------------------------------

    Orbital         1        2        3        4
   1 O   :1s     0.9896  -0.2257   0.0767   0.1318
   2 O   :1s     0.0519   0.8518  -0.3965  -0.9375
   3 O   :2pz    0.0074   0.1168   0.8610  -0.6819
   4 H   :1s    -0.0133   0.1425   0.1753   0.8519

 Molecular orbitals for symmetry species 2  (B1 )
 ------------------------------------------------

    Orbital         1
   1 O   :2px    1.0000

 Molecular orbitals for symmetry species 3  (B2 )
 ------------------------------------------------

    Orbital         1        2
   1 O   :2py    0.7373  -0.9463
   2 H   :1s     0.3080   0.9179

 Printout of CI-coefficients abs greater than 0.05000 for root  1
 *** NOTE: this root is the reference state ***

 Printout of coefficients in interval  3.1623E-01 to  1.0000E+00
 ===============================================================

  Coefficient of CSF no.         1 is      0.99931347    9.99313471E-01
  Orbital          3   1   2
  Spin coupling    2   1   1

 Printout of coefficients in interval  1.0000E-01 to  3.1623E-01
 ===============================================================
   ( no coefficients )

 Printout of coefficients in interval  5.0000E-02 to  1.0000E-01
 ===============================================================
   ( no coefficients )

 Norm of printed CI vector ..      0.99862741

 Magnitude of CI coefficients
 ============================
 ( Ranges are relative to norm of vector :  1.00E+00 )

  10- 1 to 10- 0         1    0.99862741E+00      0.9986274128
  10- 2 to 10- 1         3    0.12858840E-02      0.9999132968
  10- 3 to 10- 2         1    0.86703183E-04      1.0000000000
  Number of coefficients less than 10^-11 times norm is            0

  Total CPU  time used in SIRIUS :   9.22 seconds
  Total wall time used in SIRIUS :   8.99 seconds

 
     Date and time (Linux)  : Mon Aug  1 13:59:44 2022
     Host name              : adm-110765.pc.sdu.dk                    

 NOTE:    1 warnings have been issued.
 Check output, result, and error files for "WARNING".


                     .---------------------------------------.
                     | End of Wave Function Section (SIRIUS) |
                     `---------------------------------------'

  Total CPU  time used in DALTON:   9.28 seconds
  Total wall time used in DALTON:   9.00 seconds

 
     Date and time (Linux)  : Mon Aug  1 13:59:44 2022
     Host name              : adm-110765.pc.sdu.dk                    
