

     ************************************************************************
     *************** Dalton - An Electronic Structure Program ***************
     ************************************************************************

    This is output from DALTON release Dalton2022.0-dev (2022)
         ( Web site: http://daltonprogram.org )

   ----------------------------------------------------------------------------

    NOTE:
     
    Dalton is an experimental code for the evaluation of molecular
    properties using (MC)SCF, DFT, CI, and CC wave functions.
    The authors accept no responsibility for the performance of
    the code or for the correctness of the results.
     
    The code (in whole or part) is provided under a licence and
    is not to be reproduced for further distribution without
    the written permission of the authors or their representatives.
     
    See the home page "http://daltonprogram.org" for further information.
     
    If results obtained with this code are published,
    the appropriate citations would be both of:
     
       K. Aidas, C. Angeli, K. L. Bak, V. Bakken,
       R. Bast, L. Boman, O. Christiansen, R. Cimiraglia,
       S. Coriani, P. Dahle, E. K. Dalskov, U. Ekstroem,
       T. Enevoldsen, J. J. Eriksen, P. Ettenhuber, B. Fernandez,
       L. Ferrighi, H. Fliegl, L. Frediani, K. Hald, A. Halkier,
       C. Haettig, H. Heiberg, T. Helgaker, A. C. Hennum,
       H. Hettema, E. Hjertenaes, S. Hoest, I.-M. Hoeyvik,
       M. F. Iozzi, B. Jansik, H. J. Aa. Jensen, D. Jonsson,
       P. Joergensen, J. Kauczor, S. Kirpekar,
       T. Kjaergaard, W. Klopper, S. Knecht, R. Kobayashi, H. Koch,
       J. Kongsted, A. Krapp, K. Kristensen, A. Ligabue,
       O. B. Lutnaes, J. I. Melo, K. V. Mikkelsen, R. H. Myhre,
       C. Neiss, C. B. Nielsen, P. Norman, J. Olsen,
       J. M. H. Olsen, A. Osted, M. J. Packer, F. Pawlowski,
       T. B. Pedersen, P. F. Provasi, S. Reine, Z. Rinkevicius,
       T. A. Ruden, K. Ruud, V. Rybkin, P. Salek, C. C. M. Samson,
       A. Sanchez de Meras, T. Saue, S. P. A. Sauer,
       B. Schimmelpfennig, K. Sneskov, A. H. Steindal,
       K. O. Sylvester-Hvid, P. R. Taylor, A. M. Teale,
       E. I. Tellgren, D. P. Tew, A. J. Thorvaldsen, L. Thoegersen,
       O. Vahtras, M. A. Watson, D. J. D. Wilson, M. Ziolkowski
       and H. Agren,
       "The Dalton quantum chemistry program system",
       WIREs Comput. Mol. Sci. 2014, 4:269–284 (doi: 10.1002/wcms.1172)
     
    and
     
       Dalton, a molecular electronic structure program,
       Release Dalton2022.0-dev (2022), see http://daltonprogram.org
   ----------------------------------------------------------------------------

    Authors in alphabetical order (Major contribution(s) in parenthesis):

  Kestutis Aidas,              Vilnius University,        Lithuania   (QM/MM)
  Celestino Angeli,            University of Ferrara,     Italy       (NEVPT2)
  Juan J. Aucar,               Northeast National UniversiArgentina   (LRESC, Relativistic Effects on EFG)
  Keld L. Bak,                 UNI-C,                     Denmark     (AOSOPPA, non-adiabatic coupling, magnetic properties)
  Vebjoern Bakken,             University of Oslo,        Norway      (DALTON; geometry optimizer, symmetry detection)
  Radovan Bast,                UiT The Arctic U. of NorwayNorway      (DALTON installation and execution frameworks)
  Pablo Baudin,                University of Valencia,    Spain       (Cholesky excitation energies)
  Linus Boman,                 NTNU,                      Norway      (Cholesky decomposition and subsystems)
  Bruno N. Cabral Tenorio,     Technical Univ. of Denmark,Denmark     (Lanczos-based CC methods)
  Ove Christiansen,            Aarhus University,         Denmark     (CC module)
  Renzo Cimiraglia,            University of Ferrara,     Italy       (NEVPT2)
  Sonia Coriani,               Technical Univ. of Denmark,Denmark     (CC and RESPONS modules)
  Janusz Cukras,               University of Warsaw,      Poland      (MChD in RESPONS)
  Paal Dahle,                  University of Oslo,        Norway      (Parallelization)
  Erik K. Dalskov,             UNI-C,                     Denmark     (SOPPA)
  Thomas Enevoldsen,           Univ. of Southern Denmark, Denmark     (SOPPA)
  Janus J. Eriksen,            Aarhus University,         Denmark     (Polarizable embedding, TDA)
  Rasmus Faber,                Technical Univ. of Denmark,Denmark     (Vib.avg. NMR w. SOPPA, parallel AO-SOPPA, CVS-CC and EOMCC)
  Tobias Fahleson,             KTH Stockholm,             Sweden      (Damped cubic response)
  Berta Fernandez,             U. of Santiago de CompostelSpain       (Doublet spin, ESR in RESPONS)
  Lara Ferrighi,               Aarhus University,         Denmark     (PCM Cubic response)
  Heike Fliegl,                University of Oslo,        Norway      (CCSD(R12))
  Luca Frediani,               UiT The Arctic U. of NorwayNorway      (PCM)
  Emmanuel Fromager,           Univ. Strasbourg,          France      (MC-srDFT)
  Bin Gao,                     UiT The Arctic U. of NorwayNorway      (Gen1Int library)
  Andre S. P. Gomes,           CNRS/Universite de Lille,  France      (Frozen density embedding)
  Christof Haettig,            Ruhr-University Bochum,    Germany     (CC module)
  Kasper Hald,                 Aarhus University,         Denmark     (CC module)
  Asger Halkier,               Aarhus University,         Denmark     (CC module)
  Frederik Beyer Hansen,       University of Copenhagen,  Denmark     (Parallel AO-SOPPA)
  Erik D. Hedegaard,           Univ. of Southern Denmark, Denmark     (Polarizable embedding, QM/MM, and MC-srDFT)
  Hanne Heiberg,               University of Oslo,        Norway      (Geometry analysis, selected one-electron integrals)
  Trygve Helgaker,             University of Oslo,        Norway      (DALTON; ABACUS, ERI, DFT modules, London, and much more)
  Alf Christian Hennum,        University of Oslo,        Norway      (Parity violation)
  Hinne Hettema,               University of Auckland,    New Zealand (Quadratic response in RESPONS; SIRIUS supersymmetry)
  Andreas E. Hillers-Bendtsen, University of Copenhagen,  Denmark     (MP3)
  Eirik Hjertenaes,            NTNU,                      Norway      (Cholesky decomposition)
  Nicolai Machholdt Hoeyer,    Aarhus University,         Denmark     (MP3)
  Pi A. B. Haase,              University of Copenhagen,  Denmark     (Triplet AO-SOPPA)
  Maria Francesca Iozzi,       University of Oslo,        Norway      (RPA)
  Christoph Jacob              TU Braunschweig            Germany     (Frozen density embedding)
  Brano Jansik                 Technical Univ. of Ostrava Czech Rep.  (DFT cubic response)
  Hans Joergen Aa. Jensen,     Univ. of Southern Denmark, Denmark     (DALTON; SIRIUS, RESPONS, ABACUS, MC-srDFT, and much more)
  Dan Jonsson,                 UiT The Arctic U. of NorwayNorway      (Cubic response in RESPONS module)
  Poul Joergensen,             Aarhus University,         Denmark     (RESPONS, ABACUS, and CC modules)
  Maciej Kaminski,             University of Warsaw,      Poland      (CPPh in RESPONS)
  Joanna Kauczor,              Linkoeping University,     Sweden      (Complex polarization propagator (CPP) module)
  Sheela Kirpekar,             Univ. of Southern Denmark, Denmark     (Mass-velocity & Darwin integrals)
  Frederik Oersted Kjeldal,    Technical Univ. of Denmark,Denmark     (MP3)
  Erik Kjellgren,              Univ. of Southern Denmark, Denmark     (MC-srDFT)
  Wim Klopper,                 KIT Karlsruhe,             Germany     (R12 code in CC, SIRIUS, and ABACUS modules)
  Stefan Knecht,               ETH Zurich,                Switzerland (Parallel CI and MCSCF, MC-srDFT)
  Rika Kobayashi,              Australian National Univ., Australia   (DIIS in CC, London in MCSCF)
  Henrik Koch,                 NTNU,                      Norway      (CC module, Cholesky decomposition)
  Jacob Kongsted,              Univ. of Southern Denmark, Denmark     (Polarizable embedding, polarizable density embedding, QM/MM)
  Andrea Ligabue,              University of Modena,      Italy       (CTOCD, AOSOPPA)
  Nanna H. List                Univ. of Southern Denmark, Denmark     (Polarizable embedding)
  Ola B. Lutnaes,              University of Oslo,        Norway      (DFT Hessian)
  Juan I. Melo,                University of Buenos Aires,Argentina   (LRESC, Relativistic Effects on NMR Shieldings)
  Kurt V. Mikkelsen,           University of Copenhagen,  Denmark     (MC-SCRF, QM/MM, and MP3)
  Rolf H. Myhre,               NTNU,                      Norway      (Subsystems and CC3)
  Christian Neiss,             Univ. Erlangen-Nuernberg,  Germany     (CCSD(R12))
  Christian B. Nielsen,        University of Copenhagen,  Denmark     (QM/MM)
  Patrick Norman,              KTH Stockholm,             Sweden      (Cubic response and complex frequency response in RESPONS)
  Jeppe Olsen,                 Aarhus University,         Denmark     (SIRIUS CI/density modules)
  Jogvan Magnus H. Olsen,      Aarhus University,         Denmark     (Polarizable embedding and polarizable density embedding)
  Anders Osted,                Copenhagen University,     Denmark     (QM/MM)
  Martin J. Packer,            University of Sheffield,   UK          (SOPPA)
  Filip Pawlowski,             Kazimierz Wielki UniversityPoland      (CC3)
  Morten N. Pedersen,          Univ. of Southern Denmark, Denmark     (Polarizable embedding)
  Thomas B. Pedersen,          University of Oslo,        Norway      (Cholesky decomposition)
  Patricio F. Provasi,         University of Northeastern,Argentina   (Analysis of coupling constants in localized orbitals)
  Peter Reinholdt,             Univ. of Southern Denmark, Denmark     (Polarizable embedding and polarizable density embedding)
  Zilvinas Rinkevicius,        KTH Stockholm,             Sweden      (open-shell DFT, ESR)
  Elias Rudberg,               KTH Stockholm,             Sweden      (DFT grid and basis info)
  Torgeir A. Ruden,            University of Oslo,        Norway      (Numerical derivatives in ABACUS)
  Kenneth Ruud,                UiT The Arctic U. of NorwayNorway      (DALTON; ABACUS magnetic properties and much more)
  Pawel Salek,                 KTH Stockholm,             Sweden      (DALTON; DFT code)
  Claire C. M. Samson          University of Karlsruhe    Germany     (Boys localization, r12 integrals in ERI)
  Alfredo Sanchez de Meras,    University of Valencia,    Spain       (CC module, Cholesky decomposition)
  Trond Saue,                  Paul Sabatier University,  France      (direct Fock matrix construction)
  Stephan P. A. Sauer,         University of Copenhagen,  Denmark     (SOPPA(CCSD), SOPPA prop., AOSOPPA, vibrational g-factors)
  Bernd Schimmelpfennig,       Forschungszentrum KarlsruheGermany     (AMFI module)
  Anna K. Schnack-Petersen,    University of Copenhagen,  Denmark     (RPA(D) and HRPA(D) properties in AOSOPPA)
  Kristian Sneskov,            Aarhus University,         Denmark     (Polarizable embedding, QM/MM)
  Arnfinn H. Steindal,         UiT The Arctic U. of NorwayNorway      (parallel QM/MM, polarizable embedding)
  Casper Steinmann,            Aalborg University,        Denmark     (QFIT, polarizable embedding)
  K. O. Sylvester-Hvid,        University of Copenhagen,  Denmark     (MC-SCRF)
  Peter R. Taylor,             VLSCI/Univ. of Melbourne,  Australia   (Symmetry handling ABACUS, integral transformation)
  Andrew M. Teale,             University of Nottingham,  England     (DFT-AC, DFT-D)
  David P. Tew,                University of Bristol,     England     (CCSD(R12))
  Julien Toulouse,             Sorbonne Univ.,            France      (MC-srDFT)
  Olav Vahtras,                KTH Stockholm,             Sweden      (Triplet response, spin-orbit, ESR, TDDFT, open-shell DFT)
  Lucas Visscher,              Vrije Universiteit AmsterdaNetherlands (Frozen density embedding)
  David J. Wilson,             La Trobe University,       Australia   (DFT Hessian and DFT magnetizabilities)
  Luna Zamok,                  University of Copenhagen,  Denmark     (Block Lanczos RPA solver in SOPPA module)
  Hans Agren,                  KTH Stockholm,             Sweden      (SIRIUS module, RESPONS, MC-SCRF solvation)
 --------------------------------------------------------------------------------

     Date and time (Linux)  : Fri May  6 09:40:54 2022
     Host name              : loke                                    

 * Work memory size             :    64000000 =  488.28 megabytes.

 * Directories for basis set searches:
   1) /home/reinholdt/Programs/dalton/DALTON/test/pemcscf_gspol
   2) /home/reinholdt/Programs/dalton/build-gcc-debug/basis


Compilation information
-----------------------

 Who compiled             | reinholdt
 Host                     | loke
 System                   | Linux-5.17.3-arch1-1
 CMake generator          | Unix Makefiles
 Processor                | x86_64
 64-bit integers          | OFF
 MPI                      | ON
 Fortran compiler         | /usr/bin/mpif90
 Fortran compiler version | GNU Fortran (GCC) 11.2.0
 C compiler               | /usr/bin/mpicc
 C compiler version       | gcc (GCC) 11.2.0
 C++ compiler             | /usr/bin/mpic++
 C++ compiler version     | unknown
 BLAS                     | /lib64/libopenblas.so
 LAPACK                   | /lib64/liblapack.so
 Static linking           | OFF
 Last Git revision        | 5c57b22d8482ddd1ee96142deed42fb7d43f6fcc
 Git branch               | fix-mcscf-gspol
 Configuration time       | 2022-05-05 16:26:31.673319

 * MPI parallel run using 2 processes.


   Content of the .dal input file
 ----------------------------------

**DALTON
.RUN PROPERTIES
.PELIB
*PELIB
.GSPOL
.NOSKIPMUL
**WAVE FUNCTIONS
.HF
.MP2
.MCSCF
*CONFIGURATION INPUT
.INACTIVE
14
.CAS SPACE
2
.ELECTRONS
2
**PROPERTIES
.EXCITA
*EXCITA
.NEXCIT
4
.DIPSTR
**END OF


   Content of the .mol file
 ----------------------------

BASIS
STO-3G
Acrolein
------------------------
AtomTypes=3 NoSymmetry Angstrom
Charge=6.0 Atoms=3
C             -0.145335   -0.546770    0.000607
C              1.274009   -0.912471   -0.000167
C              1.630116   -2.207690   -0.000132
Charge=8.0 Atoms=1
O             -0.560104    0.608977    0.000534
Charge=1.0 Atoms=4
H             -0.871904   -1.386459    0.001253
H              2.004448   -0.101417   -0.000710
H              0.879028   -3.000685    0.000484
H              2.675323   -2.516779   -0.000673


       *******************************************************************
       *********** Output from DALTON general input processing ***********
       *******************************************************************

 --------------------------------------------------------------------------------
   Overall default print level:    0
   Print level for DALTON.STAT:    1

    Parallel calculation using MPI
    AO-direct calculation (in sections where implemented)
    HERMIT 1- and 2-electron integral sections will be executed
    "Old" integral transformation used (limited to max 255 basis functions)
    Wave function sections will be executed (SIRIUS module)
    Static molecular property section will be executed (ABACUS module)
    Environment effects are included (PElib)
 --------------------------------------------------------------------------------


   ****************************************************************************
   *************** Output of molecule and basis set information ***************
   ****************************************************************************


    The two title cards from your ".mol" input:
    ------------------------------------------------------------------------
 1: Acrolein                                                                
 2: ------------------------                                                
    ------------------------------------------------------------------------

  Coordinates are entered in Angstrom and converted to atomic units.
          - Conversion factor : 1 bohr = 0.52917721 A

  Atomic type no.    1
  --------------------
  Nuclear charge:   6.00000
  Number of symmetry independent centers:    3
  Number of basis sets to read;    2
  Basis set file used for this atomic type with Z =   6 :
     "/home/reinholdt/Programs/dalton/build-gcc-debug/basis/STO-3G"

  Atomic type no.    2
  --------------------
  Nuclear charge:   8.00000
  Number of symmetry independent centers:    1
  Number of basis sets to read;    2
  Basis set file used for this atomic type with Z =   8 :
     "/home/reinholdt/Programs/dalton/build-gcc-debug/basis/STO-3G"

  Atomic type no.    3
  --------------------
  Nuclear charge:   1.00000
  Number of symmetry independent centers:    4
  Number of basis sets to read;    2
  Basis set file used for this atomic type with Z =   1 :
     "/home/reinholdt/Programs/dalton/build-gcc-debug/basis/STO-3G"


                         SYMGRP: Point group information
                         -------------------------------

@    Point group: C1 


                                 Isotopic Masses
                                 ---------------

                           C          12.000000
                           C          12.000000
                           C          12.000000
                           O          15.994915
                           H           1.007825
                           H           1.007825
                           H           1.007825
                           H           1.007825

                       Total mass:    56.026215 amu
                       Natural abundance:  96.446 %

 Center-of-mass coordinates (a.u.):    0.973773   -1.393790    0.000425
 Center-of-mass coordinates (Angs):    0.515299   -0.737562    0.000225


  Atoms and basis sets
  --------------------

  Number of atom types :    3
  Total number of atoms:    8

  Basis set used is "STO-3G" from the basis set library.

  label    atoms   charge   prim   cont     basis
  ----------------------------------------------------------------------
  C           3    6.0000    15     5      [6s3p|2s1p]                                        
  O           1    8.0000    15     5      [6s3p|2s1p]                                        
  H           4    1.0000     3     1      [3s|1s]                                            
  ----------------------------------------------------------------------
  total:      8   30.0000    72    24
  ----------------------------------------------------------------------

  Threshold for neglecting AO integrals:  1.00D-12


  Cartesian Coordinates (a.u.)
  ----------------------------

  Total number of coordinates:   24
  C       :     1  x  -0.2746433464    2  y  -1.0332455534    3  z   0.0011470638
  C       :     4  x   2.4075280908    5  y  -1.7243202870    6  z  -0.0003155843
  C       :     7  x   3.0804727920    8  y  -4.1719294689    9  z  -0.0002494438
  O       :    10  x  -1.0584431615   11  y   1.1507997464   12  z   0.0010091138
  H       :    13  x  -1.6476597673   14  y  -2.6200277935   15  z   0.0023678268
  H       :    16  x   3.7878577518   17  y  -0.1916503544   18  z  -0.0013417055
  H       :    19  x   1.6611221762   20  y  -5.6704728374   21  z   0.0009146274
  H       :    22  x   5.0556277659   23  y  -4.7560230271   24  z  -0.0012717857


   Interatomic separations (in Angstrom):
   --------------------------------------

            C           C           C           O           H           H     
            ------      ------      ------      ------      ------      ------
 C     :    0.000000
 C     :    1.465700    0.000000
 C     :    2.431231    1.343281    0.000000
 O     :    1.227919    2.383018    3.568007    0.000000
 H     :    1.110397    2.197637    2.633349    2.019650    0.000000
 H     :    2.195429    1.091490    2.139278    2.661125    3.150355    0.000000
 H     :    2.659139    2.125241    1.092234    3.885970    2.381489    3.110036
 H     :    3.440501    2.130137    1.089951    4.498704    3.722962    2.506800

            H           H     
            ------      ------
 H     :    0.000000
 H     :    1.860334    0.000000


  Max    interatomic separation is    4.4987 Angstrom (    8.5013 Bohr)
  between atoms    8 and    4, "H     " and "O     ".

  Min HX interatomic separation is    1.0900 Angstrom (    2.0597 Bohr)

  Min YX interatomic separation is    1.2279 Angstrom (    2.3204 Bohr)


  Bond distances (Angstrom):
  --------------------------

                  atom 1     atom 2       distance
                  ------     ------       --------
  bond distance:  C          C            1.465700
  bond distance:  C          C            1.343281
  bond distance:  O          C            1.227919
  bond distance:  H          C            1.110397
  bond distance:  H          C            1.091490
  bond distance:  H          C            1.092234
  bond distance:  H          C            1.089951


  Bond angles (degrees):
  ----------------------

                  atom 1     atom 2     atom 3         angle
                  ------     ------     ------         -----
  bond angle:     C          C          O            124.190
  bond angle:     C          C          H            116.421
  bond angle:     O          C          H            119.389
  bond angle:     C          C          C            119.821
  bond angle:     C          C          H            117.558
  bond angle:     C          C          H            122.621
  bond angle:     C          C          H            121.182
  bond angle:     C          C          H            121.847
  bond angle:     H          C          H            116.971




 Principal moments of inertia (u*A**2) and principal axes
 --------------------------------------------------------

   IA      10.696865         -0.668732    0.743503    0.000230
   IB     108.794831          0.743503    0.668732   -0.000587
   IC     119.491696          0.000590    0.000221    1.000000


 Rotational constants
 --------------------

@    The molecule is planar.

               A                   B                   C

          47245.5253           4645.2483           4229.4069 MHz
            1.575941            0.154949            0.141078 cm-1


@  Nuclear repulsion energy :  102.664846860515 Hartree

  Reading potential input file for polarizable embedding calculation

    .------------------------------------------------.
    | Information from polarizable embedding library |
    `------------------------------------------------´

      Number of classical sites:     10

      Multipole moments upto 3rd order.

      Dipole-dipole polarizabilities.

      Dynamic response from environment will be neglected during response calculation.

      Iterative solver for induced moments will be used
      with convergence threshold: 1.0E-08
      Total charge of classical region:    0.0000
 


                     .---------------------------------------.
                     | Starting in Integral Section (HERMIT) |
                     `---------------------------------------'



 ***************************************************************************************
 ****************** Output from **INTEGRALS input processing (HERMIT) ******************
 ***************************************************************************************


 - Using defaults, no **INTEGRALS input found

 Default print level:        1

 Calculation of one-electron Hamiltonian integrals.

 Center of mass  (bohr):      0.973773359129     -1.393789716280      0.000424788898
 Operator center (bohr):      0.000000000000      0.000000000000      0.000000000000
 Gauge origin    (bohr):      0.000000000000      0.000000000000      0.000000000000
 Dipole origin   (bohr):      0.000000000000      0.000000000000      0.000000000000


     ************************************************************************
     ************************** Output from HERINT **************************
     ************************************************************************



                      Nuclear contribution to dipole moments
                      --------------------------------------

                 au               Debye          C m (/(10**-30)

      x     31.66954785        80.49595632       268.50560837
      y    -45.60874790      -115.92586657      -386.68706791
      z      0.01223409         0.03109595         0.10372491


  Total CPU  time used in HERMIT:   0.02 seconds
  Total wall time used in HERMIT:   0.02 seconds


                        .----------------------------------.
                        | End of Integral Section (HERMIT) |
                        `----------------------------------'



                   .--------------------------------------------.
                   | Starting in Wave Function Section (SIRIUS) |
                   `--------------------------------------------'


 *** Output from Huckel module :

     Using EWMO model:          T
     Using EHT  model:          F
     Number of Huckel orbitals each symmetry:   24

 EWMO - Energy Weighted Maximum Overlap - is a Huckel type method,
        which normally is better than Extended Huckel Theory.
 Reference: Linderberg and Ohrn, Propagators in Quantum Chemistry (Wiley, 1973)

 Huckel EWMO eigenvalues for symmetry :  1
          -20.684561     -11.357400     -11.351264     -11.346036      -1.724840
           -1.477979      -1.046134      -1.031570      -0.744448      -0.729231
           -0.672044      -0.551742      -0.540543      -0.516178      -0.438809
           -0.319925      -0.220785      -0.162868      -0.131432      -0.129120
           -0.123435      -0.114530      -0.093199      -0.085427

 SETCI, core memory needed for CI:
 LCINDX =          48
 LACIMX =         126
 LBCIMX =           0

 Number of determinants:             4

 Number of configurations:           3

 Time used in SETCI :      0.05s

 **********************************************************************
 *SIRIUS* a direct, restricted step, second order MCSCF program       *
 **********************************************************************

 
     Date and time (Linux)  : Fri May  6 09:40:54 2022
     Host name              : loke                                    

 Title lines from ".mol" input file:
     Acrolein                                                                
     ------------------------                                                

 Print level on unit LUPRI =   2 is   0
 Print level on unit LUW4  =   2 is   5

@    MCSCF optimization.
@              Type: complete active space calculation (CAS).

@    This is a combination run starting with
@              a restricted, closed shell Hartree-Fock calculation
@              an MP2 calculation

 Fock matrices are calculated directly and in parallel without use of integrals on disk.

 Initial molecular orbitals are obtained according to
 ".MOSTART EWMO  " input option

@    QM part is embedded in an environment :

@         Model: PE

     Wave function specification
     ============================

     Wave function environment is modeled using the
     polarizable embedding model (PE library).

@    Wave function type        --- PE-MC-SCF ---
@    Number of closed shell electrons          28
@    Number of electrons in active shells       2
@    Total charge of the molecule               0

@    Spin multiplicity and 2 M_S                1         0
@    Total number of symmetries                 1 (point group: C1 )
@    Reference state symmetry                   1 (irrep name : A  )

     Orbital specifications
     ======================
@    Abelian symmetry species          All |    1
@                                          |  A  
                                       --- |  ---
@    Inactive orbitals                  14 |   14
@    Active orbitals                     2 |    2
@    Secondary orbitals                  8 |    8
@    Total number of orbitals           24 |   24
@    Number of basis functions          24 |   24

      -- Initial occupation of symmetries is determined from total charge (only one symmetry!)
      -- Initial occupation of symmetries is :
@    Occupied SCF orbitals              15 |   15

     Optimization information
     ========================
@    Number of configurations                 3
@    Number of orbital rotations            156
     ------------------------------------------
@    Total number of variables              159

     Maximum number of macro iterations      25
     Maximum number of micro iterations     600
     Threshold for MCSCF gradient      1.00D-05
     Number of initial trial vectors          1
     Number of initial CI iterations         -1
     Number of simultaneous trial vectors     1

@    This calculation converges to the lowest state for the specified symmetry and spin species.

     Maximum number of NEO/NR iterations  24


 ***********************************************
 ***** DIIS acceleration of SCF iterations *****
 ***********************************************

 C1-DIIS algorithm; max error vectors =    8

 Iter      Total energy     Embedding energy      Error norm     Delta(E)
 -----------------------------------------------------------------------------
   1  Screening settings (-IFTHRS, JTDIIS, DIFDEN, times)   -6    1    F  9.09D-02  9.10D-02
@  1  -187.948501792     -4.868374348971E-02    2.01259D+00   -1.88D+02
      Virial theorem: -V/T =      2.003056
@    MULPOP   C       0.93; C       0.24; C       0.42; O      -1.03; H      -0.16; H      -0.14; H      -0.12; H      -0.13; 
   1  Level shift: doubly occupied orbital energies shifted by -2.00D-01
 -----------------------------------------------------------------------------
   2  Screening settings (-IFTHRS, JTDIIS, DIFDEN, times)   -7    2    F  9.22D-02  9.30D-02
@  2  -188.277992064     -9.093782156967E-03    7.39437D-01   -3.29D-01
      Virial theorem: -V/T =      2.009155
@    MULPOP   C      -0.14; C      -0.12; C      -0.12; O       0.05; H       0.05; H       0.11; H       0.09; H       0.09; 
   2  Level shift: doubly occupied orbital energies shifted by -1.00D-01
 -----------------------------------------------------------------------------
   3  Screening settings (-IFTHRS, JTDIIS, DIFDEN, times)   -7    3    F  9.02D-02  9.10D-02
@  3  -188.315432291     -1.888555761309E-02    1.08663D-01   -3.74D-02
      Virial theorem: -V/T =      2.007941
@    MULPOP   C       0.16; C      -0.10; C      -0.11; O      -0.26; H       0.05; H       0.10; H       0.08; H       0.08; 
   3  Level shift: doubly occupied orbital energies shifted by -2.50D-02
 -----------------------------------------------------------------------------
   4  Screening settings (-IFTHRS, JTDIIS, DIFDEN, times)   -8    4    F  9.22D-02  9.20D-02
@  4  -188.317193247     -1.925766590430E-02    3.06390D-02   -1.76D-03
      Virial theorem: -V/T =      2.007863
@    MULPOP   C       0.14; C      -0.10; C      -0.09; O      -0.27; H       0.07; H       0.10; H       0.07; H       0.08; 
   4  Level shift: doubly occupied orbital energies shifted by -1.25D-02
 -----------------------------------------------------------------------------
   5  Screening settings (-IFTHRS, JTDIIS, DIFDEN, times)   -9    5    F  9.30D-02  9.30D-02
@  5  -188.317370672     -1.919167042622E-02    1.14751D-02   -1.77D-04
      Virial theorem: -V/T =      2.007830
@    MULPOP   C       0.14; C      -0.09; C      -0.10; O      -0.27; H       0.07; H       0.10; H       0.07; H       0.08; 
 -----------------------------------------------------------------------------
   6  Screening settings (-IFTHRS, JTDIIS, DIFDEN, times)   -9    6    F  9.17D-02  9.20D-02
@  6  -188.317390052     -1.919889007225E-02    2.95560D-03   -1.94D-05
      Virial theorem: -V/T =      2.007831
@    MULPOP   C       0.14; C      -0.09; C      -0.09; O      -0.27; H       0.07; H       0.10; H       0.07; H       0.08; 
 -----------------------------------------------------------------------------
   7  Screening settings (-IFTHRS, JTDIIS, DIFDEN, times)  -10    7    F  9.16D-02  9.10D-02
@  7  -188.317391738     -1.918832084439E-02    1.02861D-03   -1.69D-06
      Virial theorem: -V/T =      2.007834
@    MULPOP   C       0.14; C      -0.09; C      -0.10; O      -0.27; H       0.07; H       0.10; H       0.07; H       0.08; 
 -----------------------------------------------------------------------------
   8  Screening settings (-IFTHRS, JTDIIS, DIFDEN, times)  -10    8    F  9.26D-02  9.30D-02
@  8  -188.317391898     -1.918616595252E-02    3.18862D-04   -1.60D-07
      Virial theorem: -V/T =      2.007835
@    MULPOP   C       0.14; C      -0.09; C      -0.10; O      -0.27; H       0.07; H       0.10; H       0.07; H       0.08; 
 -----------------------------------------------------------------------------
   9  Screening settings (-IFTHRS, JTDIIS, DIFDEN, times)  -11    9    F  9.33D-02  9.30D-02
@  9  -188.317391916     -1.918468634941E-02    5.62166D-05   -1.76D-08
      Virial theorem: -V/T =      2.007835
@    MULPOP   C       0.14; C      -0.09; C      -0.10; O      -0.27; H       0.07; H       0.10; H       0.07; H       0.08; 
 -----------------------------------------------------------------------------
  10  Screening settings (-IFTHRS, JTDIIS, DIFDEN, times)  -11   10    F  9.23D-02  9.20D-02
@ 10  -188.317391916     -1.918446058879E-02    8.86829D-06   -5.22D-10
      Virial theorem: -V/T =      2.007835
@    MULPOP   C       0.14; C      -0.09; C      -0.10; O      -0.27; H       0.07; H       0.10; H       0.07; H       0.08; 
 -----------------------------------------------------------------------------
  11  Screening settings (-IFTHRS, JTDIIS, DIFDEN, times)  -11   11    F  9.27D-02  9.20D-02
@ 11  -188.317391916     -1.918441819969E-02    2.26936D-06   -1.67D-11
      Virial theorem: -V/T =      2.007835
@    MULPOP   C       0.14; C      -0.09; C      -0.10; O      -0.27; H       0.07; H       0.10; H       0.07; H       0.08; 
 -----------------------------------------------------------------------------
  12  Screening settings (-IFTHRS, JTDIIS, DIFDEN, times)  -11   12    F  9.32D-02  9.40D-02
@ 12  -188.317391916     -1.918442081988E-02    1.12075D-06    8.53D-14
      Virial theorem: -V/T =      2.007835
@    MULPOP   C       0.14; C      -0.09; C      -0.10; O      -0.27; H       0.07; H       0.10; H       0.07; H       0.08; 
 -----------------------------------------------------------------------------
  13  Screening settings (-IFTHRS, JTDIIS, DIFDEN, times)  -11   13    F  9.38D-02  9.40D-02
@ 13  -188.317391916     -1.918441662912E-02    6.41565D-07   -4.26D-13

@ *** DIIS converged in  13 iterations !
@     Converged SCF energy, gradient:   -188.317391916169    6.42D-07
    - total time used in SIRFCK :              0.00 seconds

    .--------------------------------------------------.
    | Final results from polarizable embedding library |
    `--------------------------------------------------´

        Polarizable embedding energy contributions:
       ---------------------------------------------

       Electrostatic contributions:
            Electronic                -0.467226836672
            Nuclear                    0.448807800596
            Multipole                  0.001021874822
            Total                     -0.017397161254

       Polarization contributions:
            Electronic                -0.043153686856
            Nuclear                    0.042259266990
            Multipole                  0.000129039312
            Total                     -0.000765380553

       Total PE energy:               -0.019184416629
            (excl. multipole-multipole interaction energy)

 --- Writing SIRIFC interface file

--------------------------------------------------------------------------------


     .--------------------------------------------------.
     | HF-SCF KT IPs [a.u. & eV] from Koopmans' theorem |
     `--------------------------------------------------'


     HF-SCF KT symmetry 1 ( A  ) in point group C1  -- 15 principal poles with pole strength 1

   ============  ============  ============  ============  ============
      20.287236     11.139756     11.055343     11.046100      1.342810
     552.043761    303.128192    300.831183    300.579673     36.539711
   ============  ============  ============  ============  ============

   ============  ============  ============  ============  ============
       1.023472      0.828173      0.736270      0.616394      0.605058
      27.850091     22.535739     20.034931     16.772941     16.464472
   ============  ============  ============  ============  ============

   ============  ============  ============  ============  ============
       0.523151      0.503591      0.478636      0.362947      0.325513
      14.235664     13.703396     13.024361      9.876301      8.857653
   ============  ============  ============  ============  ============

@ Summary of HF-SCF KT ionization potentials [eV]:

@ Symmetry 1 (A  ) :   552.044     303.128     300.831     300.580      36.540
@                       27.850      22.536      20.035      16.773      16.464
@                       14.236      13.703      13.024       9.876       8.858

  === End of HF-SCF KT output ===
--------------------------------------------------------------------------------



                           +---------------------------+
                           ! Writing FOCKMAT in siropt !
                           +---------------------------+


 CPU and wall time for SCF :       1.429       1.430


 ----- Output from SIRIUS MP2 module -----

 Reference: H.J.Aa.Jensen, P.Jørgensen, H.Ågren, and J.Olsen,
            J. Chem. Phys. 88, 3834 (1988); 89, 5354 (1988)

 Checking that the closed shell orbitals are canonical Hartree-Fock orbitals

    Number of electrons  :   30
    Closed shell orbitals:   15

 MP2 for embedded QM system, reading Fock matrix from SIRIFC

@ NOTE: The present MP2 model is a PTE-like solvent MP2 model

@ Please see JCC, 2012-2022, 33, (2012) for reference.

 Hartree-Fock electronic energy:        -290.963054360055
 Hartree-Fock total      energy:        -188.298207499540

 Hartree-Fock orbital energies, symmetry 1 ( A  ),   15 occupied SCF orbitals

       -20.28723556   -11.13975644   -11.05534289   -11.04610006    -1.34280971
        -1.02347206    -0.82817320    -0.73627019    -0.61639427    -0.60505822
        -0.52315103    -0.50359056    -0.47863648    -0.36294739    -0.32551275
         0.20429347     0.38331435     0.59620656     0.62636536     0.65972007
         0.73772251     0.84219147     0.92707704     1.03955702

    E(LUMO) :     0.20429347   (in symmetry 1)
  - E(HOMO) :    -0.32551275   (in symmetry 1)
  --------------------------
    gap     :     0.52980622

---> (Re)generating AOTWOINT


     ************************************************************************
     ************************** Output from HERINT **************************
     ************************************************************************


 Threshold for neglecting two-electron integrals:  1.00D-12
 HERMIT - Number of two-electron integrals written:       43383 ( 96.1% )
 HERMIT - Megabytes written:                              0.502


 2-el. integral transformation level 5: Total CPU and WALL times (sec)       0.100       0.100

 MP2 move   0.223605 electrons to unoccupied HF orbitals


@   Hartree-Fock total energy   :          -188.2982074995
@   + MP2 contribution          :            -0.2336030427
@   = MP2 second order energy   :          -188.5318105422

 Natural orbital occupation numbers, symmetry 1 (irrep A  )
 Sum =    30.00000000; RHF =    30.00000000; Difference =     0.00000000

         1.99999810     1.99996976     1.99996871     1.99996216     1.99790989
         1.99406754     1.99168244     1.98946074     1.98826513     1.98739533
         1.98558673     1.98119844     1.97723002     1.95303104     1.93381127
         0.07151901     0.04549109     0.02292853     0.01745644     0.01524455
         0.01371992     0.01190063     0.01121522     0.01098730

 Time used for MP2 natural orbitals :       0.101 CPU seconds,       0.101 wall seconds.

 CPU and wall time for MP2 :       0.101       0.101


        SIRIUS MCSCF optimization (SIROPT)
 ================================================


 Fock matrix screening setting for SIRCNO: IFTHRS =    9


 ----- Output from SIRIUS CI module (CICTL) -----




 2-el. integral transformation level 0: Total CPU and WALL times (sec)       0.003       0.003

 (CIST1) 3 lowest diagonal elements:

 Element no. Config.no.    Active energy      Total energy

         1 :          1     -1.0607465426   -188.2985612124
         2 :          3     -0.7771834360   -188.0149981057
         3 :          2     -0.4761775231   -187.7139921928
First 1 elements used as separate start vectors.


 Convergence threshold for CI optimization :     0.01000000


 The requested root number is now converged.


 *** CI converged in  2 iterations.



@ Final CI energies and residuals in symmetry 1 (irrep A  )
@    1     -188.324036423137159       7.32D-03

   --- OUTPUT FROM SIRCNO     Keyword = ONLYFD



 --- MACRO ITERATION  1 ---
 --------------------------

 2-el. integral transformation level 3: Total CPU and WALL times (sec)       0.009       0.009

 Fock matrix screening setting for this macro iteration: 10^( -9)

 Total MCSCF energy       :          -188.339997415361523  (MACRO    1)

 - Nuclear repulsion      :           102.664846860515169
 - Inactive energy        :          -289.902661530255841
 - Active energy          :            -1.086221753394616
 - Embedding energy       :            -0.015960992226237

 Norm of total gradient   :             0.189914030577
 -    of CI gradient      :             0.022796098141
 -    of orbital gradient :             0.188540915770


 *** Label "NATOCC  " not found on SIRIUS.RST in SIRPOP

 WARNING, occupation of active orbitals not available
          population analysis aborted.
          Use ".TRACI" option.


 (SIRNEO) iteration (  1,  3)
 Micro iteration termination criterion met, EVAL(ISTATE+1) = -1.36D-02

   --- OUTPUT FROM SIRCNO     Keyword = FD+NO 


 Occupations of CAS natural orbitals:

 Symmetry  1 ( irrep A   in C1  )

   1.920835287   0.079164713


 --- MACRO ITERATION  2 ---
 --------------------------

 2-el. integral transformation level 3: Total CPU and WALL times (sec)       0.009       0.009

 Fock matrix screening setting for this macro iteration: 10^( -9)

 Total MCSCF energy       :          -188.362892179000767  (MACRO    2)

 - Nuclear repulsion      :           102.664846860515169
 - Inactive energy        :          -289.656162060259078
 - Active energy          :            -1.354062062025923
 - Embedding energy       :            -0.017514917230958

 Norm of total gradient   :             0.107532851073
 -    of CI gradient      :             0.085529490380
 -    of orbital gradient :             0.065176838947
      Virial theorem: -V/T =      2.008102
@    MULPOP   C       0.11; C      -0.07; C      -0.11; O      -0.23; H       0.06; H       0.09; H       0.08; H       0.08; 

 Residual norm when dim(red L) =   5
 NEO root     CSF        orbital          total
    1     0.01706622     0.00533657     0.01788113 converged

 (NEONEX) NEO vector is converged.

   --- OUTPUT FROM SIRCNO     Keyword = FD+NO 


 Occupations of CAS natural orbitals:

 Symmetry  1 ( irrep A   in C1  )

   1.867886969   0.132113031


 --- MACRO ITERATION  3 ---
 --------------------------

 2-el. integral transformation level 3: Total CPU and WALL times (sec)       0.009       0.010

 Fock matrix screening setting for this macro iteration: 10^( -9)

 Total MCSCF energy       :          -188.367401496202149  (MACRO    3)

 - Nuclear repulsion      :           102.664846860515169
 - Inactive energy        :          -289.564066213644651
 - Active energy          :            -1.450925489750267
 - Embedding energy       :            -0.017256653322422

 Norm of total gradient   :             0.026998574623
 -    of CI gradient      :             0.020070475882
 -    of orbital gradient :             0.018058212247
      Virial theorem: -V/T =      2.007893
@    MULPOP   C       0.11; C      -0.09; C      -0.10; O      -0.23; H       0.07; H       0.09; H       0.07; H       0.07; 

 Residual norm when dim(red L) =   6
 NEO root     CSF        orbital          total
    1     0.00000000     0.00188073     0.00188073 converged

 (NEONEX) NEO vector is converged.

   --- OUTPUT FROM SIRCNO     Keyword = FD+NO 


 Occupations of CAS natural orbitals:

 Symmetry  1 ( irrep A   in C1  )

   1.870189006   0.129810994


 --- MACRO ITERATION  4 ---
 --------------------------

 2-el. integral transformation level 3: Total CPU and WALL times (sec)       0.009       0.009

 Fock matrix screening setting for this macro iteration: 10^( -9)

 Total MCSCF energy       :          -188.368017471311560  (MACRO    4)

 - Nuclear repulsion      :           102.664846860515169
 - Inactive energy        :          -289.584741510827712
 - Active energy          :            -1.431315353588326
 - Embedding energy       :            -0.016807467410687

 Norm of total gradient   :             0.003048913562
 -    of CI gradient      :             0.001870788077
 -    of orbital gradient :             0.002407493693
      Virial theorem: -V/T =      2.007991
@    MULPOP   C       0.12; C      -0.08; C      -0.10; O      -0.23; H       0.06; H       0.09; H       0.07; H       0.07; 

 Residual norm when dim(red L) =   7
 NEO root     CSF        orbital          total
    1     0.00000000     0.00003763     0.00003763 converged

 (NEONEX) NEO vector is converged.

   --- OUTPUT FROM SIRCNO     Keyword = FD+NO 


 Occupations of CAS natural orbitals:

 Symmetry  1 ( irrep A   in C1  )

   1.871287380   0.128712620


 --- MACRO ITERATION  5 ---
 --------------------------

 2-el. integral transformation level 3: Total CPU and WALL times (sec)       0.009       0.009

 Fock matrix screening setting for this macro iteration: 10^( -9)

 Total MCSCF energy       :          -188.368019635778779  (MACRO    5)

 - Nuclear repulsion      :           102.664846860515169
 - Inactive energy        :          -289.585235666778544
 - Active energy          :            -1.430797171821099
 - Embedding energy       :            -0.016833657694328

 Norm of total gradient   :             0.000038592850
 -    of CI gradient      :             0.000003249618
 -    of orbital gradient :             0.000038455794
      Virial theorem: -V/T =      2.007993
@    MULPOP   C       0.12; C      -0.09; C      -0.10; O      -0.23; H       0.06; H       0.09; H       0.07; H       0.07; 

 Residual norm when dim(red L) =   4
 NEO root     CSF        orbital          total
    1     0.00000186     0.00000151     0.00000239 converged

 (NEONEX) NEO vector is converged.

   --- OUTPUT FROM SIRCNO     Keyword = FD+NO 


 Occupations of CAS natural orbitals:

 Symmetry  1 ( irrep A   in C1  )

   1.871287380   0.128712620


 --- MACRO ITERATION  6 ---
 --------------------------

 2-el. integral transformation level 3: Total CPU and WALL times (sec)       0.009       0.009

 Fock matrix screening setting for this macro iteration: 10^( -9)

 Total MCSCF energy       :          -188.368019636017578  (MACRO    6)

 - Nuclear repulsion      :           102.664846860515169
 - Inactive energy        :          -289.585238091768701
 - Active energy          :            -1.430794965340012
 - Embedding energy       :            -0.016833439424056

 Norm of total gradient   :             0.000002392098
 -    of CI gradient      :             0.000001856237
 -    of orbital gradient :             0.000001508812
      Virial theorem: -V/T =      2.007993
@    MULPOP   C       0.12; C      -0.09; C      -0.10; O      -0.23; H       0.06; H       0.09; H       0.07; H       0.07; 

 (SIRSTP) Energy difference;
 actual, predicted and ratio:  -0.000000000238799  -0.000000000239982    0.995073
 Close to convergence, ratio set to one.

 *** Optimization control: MCSCF converged ***
     Number of macro iterations used            6
     Number of micro iterations used           18
     Total number of CPU seconds used         3.40
     Total WALL time used (seconds)           3.40

    .--------------------------------------------------.
    | Final results from polarizable embedding library |
    `--------------------------------------------------´

        Polarizable embedding energy contributions:
       ---------------------------------------------

       Electrostatic contributions:
            Electronic                -0.465087279487
            Nuclear                    0.448807800596
            Multipole                  0.001021874822
            Total                     -0.015257604068

       Polarization contributions:
            Electronic                -0.035755024008
            Nuclear                    0.035091865008
            Multipole                  0.000109198467
            Total                     -0.000553960534

       Total PE energy:               -0.016833439424
            (excl. multipole-multipole interaction energy)

--------------------------------------------------------------------------------


     .---------------------------------------------------------------.
     | MCSCF EKT IPs [a.u. & eV], pole strengths, and Dyson orbitals |
     `---------------------------------------------------------------'


     MCSCF EKT symmetry 1 ( A  ) in point group C1  -- 15 principal poles

   ============  ============  ============  ============  ============
      20.320216     11.124542     11.044654     11.041640      1.356300
     552.941202    302.714195    300.540337    300.458311     36.906802
   ------------  ------------  ------------  ------------  ------------
       1.000000      1.000000      1.000000      1.000000      1.000000
   ============  ============  ============  ============  ============
       1.000000     -0.000000     -0.000000     -0.000000     -0.000010
      -0.000000     -1.000000     -0.000165      0.000268      0.000031
      -0.000000      0.000146     -0.997769     -0.066767     -0.000000
       0.000000      0.000279     -0.066767      0.997769     -0.000002
      -0.000011     -0.000031      0.000000     -0.000002     -0.999503
       0.000000     -0.000018     -0.000000     -0.000002     -0.020884
      -0.000006      0.000022      0.000002     -0.000013      0.017884
       0.000006     -0.000013     -0.000001      0.000006     -0.007854
       0.000003      0.000006      0.000005     -0.000016     -0.001949
      -0.000019     -0.000019     -0.000003     -0.000008      0.009589
      -0.000025     -0.000027     -0.000001      0.000002      0.006189
       0.000026      0.000044     -0.000003     -0.000011     -0.006399
       0.000000      0.000000     -0.000000     -0.000000     -0.000000
      -0.000003     -0.000001     -0.000001      0.000014      0.000746
      -0.000000      0.000000     -0.000000     -0.000000      0.000005
      -0.000000     -0.000000      0.000000      0.000000      0.000001
   ============  ============  ============  ============  ============

   ============  ============  ============  ============  ============
       1.017161      0.824253      0.733501      0.615538      0.608555
      27.678366     22.429070     19.959566     16.749631     16.559625
   ------------  ------------  ------------  ------------  ------------
       1.000000      1.000000      1.000000      1.000000      1.000000
   ============  ============  ============  ============  ============
       0.000001     -0.000009      0.000008     -0.000007     -0.000028
       0.000018     -0.000018      0.000007      0.000002      0.000036
       0.000001     -0.000002      0.000000     -0.000002      0.000004
      -0.000001     -0.000013      0.000003     -0.000016      0.000003
       0.021708     -0.018460      0.007203     -0.002155     -0.010006
      -0.999043     -0.035665      0.006942     -0.009213     -0.006498
       0.033940     -0.994688     -0.069716      0.025216      0.055372
      -0.009290      0.066352     -0.990792      0.080175     -0.074070
       0.005441      0.002689     -0.095714     -0.918655      0.360823
       0.009630     -0.052875      0.025423     -0.364841     -0.883240
       0.008599     -0.033293      0.010049     -0.090332     -0.202801
      -0.002770      0.025750     -0.052634     -0.025178      0.199622
       0.000001     -0.000001     -0.000005     -0.000001      0.000009
       0.000599     -0.002561     -0.026313     -0.083764     -0.004745
       0.000001      0.000014     -0.000004     -0.000011      0.000030
       0.000002      0.000008     -0.000002      0.000001     -0.000001
   ============  ============  ============  ============  ============

   ============  ============  ============  ============  ============
       0.527132      0.503497      0.500332      0.375585      0.324999
      14.344003     13.700839     13.614729     10.220176      8.843660
   ------------  ------------  ------------  ------------  ------------
       1.000000      0.908399      1.000000      1.000000      0.972403
   ============  ============  ============  ============  ============
      -0.000028      0.000000      0.000003     -0.000003     -0.000000
       0.000042      0.000000     -0.000015      0.000002     -0.000000
      -0.000003     -0.000000      0.000003     -0.000000     -0.000000
       0.000010      0.000000     -0.000004      0.000016      0.000000
      -0.004864      0.000003      0.000625     -0.000731     -0.000002
      -0.004603      0.000003     -0.003004      0.000393      0.000001
       0.023347      0.000000      0.003776      0.001737     -0.000004
      -0.028788     -0.000032      0.027485      0.016805     -0.000005
      -0.060984     -0.000119      0.090532      0.069011      0.000003
       0.286056      0.000029      0.012919      0.034015     -0.000008
      -0.728497      0.000622     -0.642999      0.072348      0.000015
       0.618320      0.000806     -0.753049      0.081439      0.000004
      -0.000020      0.467746      0.000497      0.000040      0.883822
       0.002755      0.000115     -0.101616     -0.990923      0.000041
      -0.000057      0.828589      0.000846     -0.000007     -0.436191
       0.000003     -0.055249     -0.000056      0.000001      0.031592
   ============  ============  ============  ============  ============

   ============
       0.875693
      23.828809
   ------------
       0.119199
   ============
       0.000000
       0.000000
      -0.000000
       0.000000
       0.000006
       0.000008
       0.000034
      -0.000009
      -0.000002
       0.000005
       0.000000
       0.000000
      -0.008468
       0.000001
       0.242531
       0.245572
   ============

@ Summary of MCSCF EKT ionization potentials [eV] and pole strengths:

@ Symmetry 1 (A  ) :   552.941     302.714     300.540     300.458      36.907
@                       27.678      22.429      19.960      16.750      16.560
@                       14.344      13.701      13.615      10.220       8.844
@                       23.829
@ Pole strengths   :     1.000       1.000       1.000       1.000       1.000
@                        1.000       1.000       1.000       1.000       1.000
@                        1.000       0.908       1.000       1.000       0.972
@                        0.119

  === End of MCSCF EKT output ===
--------------------------------------------------------------------------------



                           +---------------------------+
                           ! Writing FOCKMAT in siropt !
                           +---------------------------+


 CPU and wall time for MCSCF :       3.453       3.455


                     .----------------------------------------.
                     | --- SIRIUS OPTIMIZATION STATISTICS --- |
                     `----------------------------------------'


 
     Date and time (Linux)  : Fri May  6 09:40:59 2022
     Host name              : loke                                    


  ITER ITMIC     EMCSCF           GRDNRM        RATIO      STPLNG
 ---------------------------------------------------------------------
    1    3   -188.339997415362   0.1899140306  0.000000   0.6942026992
    2    3   -188.362892179001   0.1075328511  0.547786   0.2308271837
    3    4   -188.367401496202   0.0269985746  0.793800   0.0718656717
    4    5   -188.368017471312   0.0030489136  1.013656   0.0024816900
    5    3   -188.368019635779   0.0000385929  1.001217   0.0000254276
    6    0   -188.368019636018   0.0000023921  1.000000   0.0000000000


  ITER  INDGCM  GCIMAX      GCINRM     INDGOM  GOBMAX      GOBNRM      GRDNRM
 ------------------------------------------------------------------------------
    1      3   -0.022790    0.022796    141   -0.091375    0.188541    0.189914
    2      2   -0.083784    0.085529     26   -0.043894    0.065177    0.107533
    3      2    0.014782    0.020070     25   -0.009440    0.018058    0.026999
    4      2    0.001809    0.001871     26    0.000838    0.002407    0.003049
    5      2    0.000003    0.000003     97   -0.000016    0.000038    0.000039
    6      2    0.000002    0.000002    125   -0.000001    0.000002    0.000002


  ITER ITMIC NCLIN NOLIN   TIMMAC    TIMITR    TIMMIC    TIMLIN    TIMMIC/ITMIC
 ------------------------------------------------------------------------------

    1     3     0     3      0.54      0.01      0.43      0.34      0.14
    2     3     1     3      0.57      0.01      0.46      0.36      0.15
    3     4     2     3      0.67      0.01      0.55      0.46      0.14
    4     5     2     4      0.78      0.01      0.67      0.58      0.13
    5     3     0     3      0.54      0.01      0.43      0.34      0.14
    6     0     0     0      0.11      0.01      0.00      0.00


 ITER         EMY                 EACTIV              EMCSCF

    1   -289.902661530256     -1.086221753395   -188.339997415362
    2   -289.656162060259     -1.354062062026   -188.362892179001
    3   -289.564066213645     -1.450925489750   -188.367401496202
    4   -289.584741510828     -1.431315353588   -188.368017471312
    5   -289.585235666779     -1.430797171821   -188.368019635779
    6   -289.585238091769     -1.430794965340   -188.368019636018


 ITER         DEPRED              DEACT               RATIO

    1      0.000000000000      0.000000000000      0.000000000000
    2     -0.041795080027     -0.022894763639      0.547786094074
    3     -0.005680674556     -0.004509317201      0.793799601989
    4     -0.000607676489     -0.000615975109      1.013656313052
    5     -0.000002161836     -0.000002164467      1.001217006416
    6     -0.000000000240     -0.000000000239      1.000000000000


 ITER    BETA           GAMMA             STPLNG              RTRUST

    1      2.29549669  1.00000000      0.694202699239      0.700000000000
    2      0.20000000  1.00000000      0.230827183653      0.700000000000
    3      0.20000000  1.00000000      0.071865671691      0.700000000000
    4      0.20000000  1.00000000      0.002481689956      0.700000000000
    5      0.20000000  1.00000000      0.000025427556      0.700000000000
    6      0.00000000  0.00000000      0.000000000000      0.700000000000


 Reduced L root no.  1
 ITER         EVAL              EVEC(1)           EVEC(2)           EVEC(3)
 ----------------------------------------------------------------------------
    1   -0.124446465585   -0.531541324280    0.791093695048    0.298264457778
    2   -0.000453487470    0.998936076537   -0.011937459569   -0.043849616904
    3   -0.000048604078    0.999896722506   -0.002498122648   -0.013852034141
    4   -0.000000172947    0.999999876824   -0.000223037188   -0.000432059707
    5   -0.000000000019    0.999999999987   -0.000004732129   -0.000001847143
    6    0.000000000000    0.000000000000    0.000000000000    0.000000000000


                       .-----------------------------------.
                       | --- Final results from SIRIUS --- |
                       `-----------------------------------'


@    Spin multiplicity:           1
@    Spatial symmetry:            1 ( irrep  A   in C1  )
@    Total charge of molecule:    0

@    This was an MCSCF calculation.
@    State number:                1

@    Final MCSCF energy:         -188.368019636018                 
@    Nuclear repulsion:           102.664846860515
@    Electronic energy:          -291.016033057109
@    Embedding energy:             -0.016833439424

@    Final gradient norm:           0.000002392098

 
     Date and time (Linux)  : Fri May  6 09:40:59 2022
     Host name              : loke                                    

 Occupancies of natural orbitals
 -------------------------------

 Symmetry 1  ( A  ) -- Total occupation in this symmetry is  30.000000000

   2.000000000   2.000000000   2.000000000   2.000000000   2.000000000
   2.000000000   2.000000000   2.000000000   2.000000000   2.000000000
   2.000000000   2.000000000   2.000000000   2.000000000   1.871287380
   0.128712620

   Effective number of unpaired electrons this symmetry:  0.4817

 Total effective number of unpaired electrons :  0.4817
    ( = sum(i) (2 - n_i)*n_i  for natural orbitals)

File label for MO orbitals:   6May22   (CNOORB)

 (Only coefficients > 0.0100 are printed.)

 Molecular orbitals for symmetry species 1  (A  )
 ------------------------------------------------

    Orbital         1        2        3        4        5        6        7
   1 C   :1s    -0.0005  -0.9925   0.0006   0.0018   0.1250  -0.0594   0.1327
   2 C   :1s     0.0071  -0.0334  -0.0001  -0.0065  -0.2855   0.1669  -0.4068
   3 C   :2px   -0.0021  -0.0002  -0.0002  -0.0043   0.0457   0.1089  -0.1175
   4 C   :2py    0.0059  -0.0006   0.0002   0.0011  -0.1431  -0.0868   0.1349
   6 C   :1s     0.0000   0.0008   0.0544   0.9907   0.0233  -0.1791   0.0647
   7 C   :1s    -0.0003   0.0061  -0.0056   0.0366  -0.0571   0.4700  -0.1923
   8 C   :2px    0.0000  -0.0040  -0.0012  -0.0003   0.0297  -0.0065   0.1732
   9 C   :2py   -0.0005   0.0013   0.0043  -0.0017  -0.0084  -0.0951  -0.1681
  11 C   :1s    -0.0000   0.0004   0.9909  -0.0538   0.0053  -0.1601  -0.1468
  12 C   :1s    -0.0001  -0.0001   0.0352  -0.0097  -0.0126   0.4241   0.4323
  13 C   :2px   -0.0001  -0.0000  -0.0004   0.0013   0.0026  -0.0379   0.0612
  14 C   :2py   -0.0000   0.0000   0.0012  -0.0045  -0.0061   0.1054  -0.0728
  16 O   :1s    -0.9943  -0.0002   0.0000  -0.0000   0.2168   0.0456  -0.0765
  17 O   :1s    -0.0259   0.0059  -0.0001   0.0003  -0.7612  -0.1764   0.3266
  18 O   :2px   -0.0019   0.0007  -0.0000   0.0002  -0.0595   0.0159  -0.0617
  19 O   :2py    0.0052  -0.0017   0.0001  -0.0001   0.1601   0.0007   0.0856
  21 H   :1s    -0.0002   0.0065  -0.0001   0.0001  -0.0345   0.0441  -0.1471
  22 H   :1s     0.0002  -0.0000  -0.0003  -0.0067  -0.0096   0.1029  -0.0686
  23 H   :1s     0.0000   0.0001  -0.0067   0.0005  -0.0023   0.1009   0.1573
  24 H   :1s     0.0000   0.0001  -0.0067   0.0005  -0.0015   0.0939   0.1991

    Orbital         8        9       10       11       12       13       14
   1 C   :1s    -0.0974  -0.0101   0.0576   0.0296   0.0128  -0.0000  -0.0036
   2 C   :1s     0.3148   0.0373  -0.1928  -0.1012  -0.0592   0.0000   0.0125
   3 C   :2px   -0.2001  -0.3795  -0.0697  -0.0758  -0.2354   0.0001   0.1792
   4 C   :2py   -0.1831  -0.0964  -0.1775  -0.2650   0.2874   0.0000   0.0549
   5 C   :2pz    0.0002   0.0003   0.0001   0.0001   0.0001   0.1482  -0.0001
   6 C   :1s     0.1041  -0.0124  -0.0388  -0.0085  -0.0100   0.0000  -0.0366
   7 C   :1s    -0.3230   0.0437   0.1111   0.0464   0.0407  -0.0000   0.1588
   8 C   :2px   -0.1688   0.3056   0.0077   0.1079   0.2376   0.0004  -0.2876
   9 C   :2py   -0.1442  -0.0294  -0.3413   0.3623   0.0164   0.0001   0.0643
  10 C   :2pz    0.0001  -0.0002   0.0001  -0.0001  -0.0001   0.6326   0.0002
  11 C   :1s    -0.0512   0.0097   0.0099   0.0242  -0.0074   0.0000   0.0073
  12 C   :1s     0.1608  -0.0413  -0.0540  -0.0696   0.0223  -0.0000  -0.0228
  13 C   :2px   -0.0653   0.2693  -0.3036  -0.1083  -0.3555   0.0004   0.0589
  14 C   :2py   -0.1732   0.2137   0.3238  -0.3208  -0.0211   0.0001  -0.0636
  15 C   :2pz    0.0001  -0.0002   0.0001   0.0001   0.0002   0.6002  -0.0000
  16 O   :1s     0.0441   0.0160  -0.0666  -0.0484   0.0531   0.0000  -0.0013
  17 O   :1s    -0.1978  -0.0806   0.3304   0.2574  -0.2876  -0.0000   0.0087
  18 O   :2px   -0.0948  -0.2722  -0.2392  -0.2972  -0.0203   0.0000  -0.8217
  19 O   :2py   -0.1457  -0.1688   0.2497   0.3303  -0.4879  -0.0000  -0.2951
  20 O   :2pz    0.0001   0.0002   0.0001   0.0001   0.0002  -0.0294   0.0006
  21 H   :1s     0.2774   0.2282   0.0412   0.1853  -0.0881  -0.0000  -0.3354
  22 H   :1s    -0.2608   0.1547  -0.1322   0.3372   0.1833  -0.0000  -0.1045
  23 H   :1s     0.1809  -0.2791  -0.0434   0.2725   0.2675  -0.0000  -0.0463
  24 H   :1s     0.0569   0.1374  -0.3317  -0.0559  -0.3174   0.0000   0.0887

    Orbital        15       16       17       18       19       20       21
   1 C   :1s    -0.0000   0.0000   0.0000   0.0084  -0.1901   0.0274   0.0051
   2 C   :1s     0.0000  -0.0000  -0.0000  -0.0521   1.1710  -0.1747  -0.0507
   3 C   :2px    0.0004  -0.0005  -0.0001  -0.2944   0.0491  -0.0614   0.8807
   4 C   :2py    0.0002  -0.0002  -0.0001  -0.2681  -0.4414   0.1786   0.2749
   5 C   :2pz    0.5919  -0.8066  -0.2454   0.0003   0.0001  -0.0000  -0.0006
   6 C   :1s     0.0000  -0.0000   0.0000   0.0636   0.1069   0.0073   0.1826
   7 C   :1s    -0.0000   0.0000  -0.0000  -0.3952  -0.6314  -0.0182  -1.2081
   8 C   :2px   -0.0000   0.0000   0.0005  -0.5060   0.4186  -0.1473  -0.0254
   9 C   :2py   -0.0000   0.0000   0.0001  -0.3648  -0.2204   0.2930  -0.1771
  10 C   :2pz   -0.0600   0.0763   0.8301   0.0003  -0.0002   0.0000   0.0000
  11 C   :1s    -0.0000   0.0000  -0.0000  -0.0070  -0.0482  -0.2017  -0.0531
  12 C   :1s     0.0000  -0.0000   0.0000   0.0284   0.2867   1.2913   0.3365
  13 C   :2px   -0.0001   0.0001  -0.0005  -0.5924   0.3364   0.0342   0.0666
  14 C   :2py   -0.0000   0.0000  -0.0002  -0.1763  -0.0484  -0.4689   0.4468
  15 C   :2pz   -0.1614   0.2061  -0.7941   0.0004  -0.0002   0.0001  -0.0001
  16 O   :1s    -0.0000  -0.0000  -0.0000  -0.0163   0.0226   0.0079  -0.0031
  17 O   :1s     0.0000   0.0000   0.0000   0.1145  -0.1294  -0.0605   0.0214
  18 O   :2px    0.0004   0.0005   0.0000   0.1468  -0.0430  -0.0263  -0.2178
  19 O   :2py    0.0002   0.0002  -0.0000  -0.1027   0.1883   0.0608  -0.1174
  20 O   :2pz    0.6851   0.7567   0.0370  -0.0001  -0.0000  -0.0000   0.0002
  21 H   :1s     0.0000   0.0000  -0.0000  -0.3496  -0.8885   0.2268   0.6646
  22 H   :1s    -0.0000   0.0000   0.0000   0.8627   0.2434  -0.0768   0.6712
  23 H   :1s    -0.0000  -0.0000  -0.0000  -0.5689   0.0920  -0.9379   0.1194
  24 H   :1s    -0.0000   0.0000  -0.0000   0.5146  -0.5015  -0.7851  -0.1202

    Orbital        22       23       24
   1 C   :1s    -0.1204   0.0215  -0.0432
   2 C   :1s     0.7880  -0.1566   0.2828
   3 C   :2px   -0.1359  -0.7235  -0.1444
   4 C   :2py    0.6114   0.2414   0.8762
   6 C   :1s     0.0588   0.0262  -0.0679
   7 C   :1s    -0.4101  -0.2223   0.5340
   8 C   :2px    0.2568  -0.9602  -0.1207
   9 C   :2py    0.4897   0.3635  -0.9956
  11 C   :1s    -0.0353  -0.0465   0.0812
  12 C   :1s     0.2570   0.3487  -0.6432
  13 C   :2px   -0.7289   0.5209   0.3531
  14 C   :2py    0.4015   0.7139  -0.6852
  16 O   :1s     0.0841   0.0288   0.0724
  17 O   :1s    -0.6032  -0.2171  -0.5509
  18 O   :2px   -0.2529   0.0462  -0.2092
  19 O   :2py    0.6260   0.2583   0.5249
  21 H   :1s    -0.0817  -0.1925   0.2408
  22 H   :1s    -0.2673   0.3515   0.3605
  23 H   :1s    -0.2496   0.5293   0.0499
  24 H   :1s     0.5375  -0.3475  -0.1430

 Printout of CI-coefficients abs greater than 0.05000 for root  1
 *** NOTE: this root is the reference state ***

 Printout of coefficients in interval  3.1623E-01 to  1.0000E+00
 ===============================================================

  Coefficient of CSF no.         1 is     -0.96728677   -9.67286767E-01
  Orbital          1
  Spin coupling    2

 Printout of coefficients in interval  1.0000E-01 to  3.1623E-01
 ===============================================================

  Coefficient of CSF no.         2 is      0.25368546    2.53685455E-01
  Orbital          2
  Spin coupling    2

 Printout of coefficients in interval  5.0000E-02 to  1.0000E-01
 ===============================================================
   ( no coefficients )

 Norm of printed CI vector ..      1.00000000

 Magnitude of CI coefficients
 ============================
 ( Ranges are relative to norm of vector :  1.00E+00 )

  10- 1 to 10- 0         2    0.10000000E+01      1.0000000000
  Number of coefficients less than 10^-11 times norm is            1

  Total CPU  time used in SIRIUS :   4.99 seconds
  Total wall time used in SIRIUS :   4.99 seconds

 
     Date and time (Linux)  : Fri May  6 09:40:59 2022
     Host name              : loke                                    

 NOTE:    1 warnings have been issued.
 Check output, result, and error files for "WARNING".


                     .---------------------------------------.
                     | End of Wave Function Section (SIRIUS) |
                     `---------------------------------------'



        *****************************************************************
        ******** Output from **PROPE input processing for ABACUS ********
        *****************************************************************

     Environment effects are included through the PE library


 The following molecular properties will be calculated in this run:
 ------------------------------------------------------------------

 Default print level:        0

      Electronic excitation energies 
      Direct calculation - no two-electron integrals written or read.
      Two-electron integrals will be calculated in parallel
      Natural orbital connection is used
      for perturbation dependent basis sets.
     Environment effects are included through the PE library


 Changes of defaults for .EXCITA:
 --------------------------------

 Number of excitation energies:    4
 Print level          :    0
 Integral print level :    0
 Convergence threshold: 1.00E-04
 Maximum iterations   :   60
 Dipole strength

 INFO SIR_INTOPEN, old integral transformation not found as expected, ICASE = 3
 - ICASE = 1: MO integral file MOTWOINT does not exist
 - ICASE = 2: no MO integrals on MOTWOINT
 - ICASE = 3: transformation level on MOTWOINT not sufficient
 ITRLVL requested & ITRLVL on MOTWOINT :    4    3

 NSETUP: MO transformation level too low or no MO integral file found.
 NSETUP: generating MO 2-el. integral file. Transformation level: 4


 Old direct access AO file found, SORTA skipped.

 2-el. integral transformation level 4: Total CPU and WALL times (sec)       0.016       0.016

 Sorting integrals to Dirac format: Total CPU and WALL times (sec)       0.001       0.002

 Center of mass dipole origin  :    0.973773   -1.393790    0.000425

 Center of mass gauge origin   :    0.973773   -1.393790    0.000425


                 .------------------------------------------------.
                 | Starting in Static Property Section (ABACUS) - |
                 `------------------------------------------------'


 
     Date and time (Linux)  : Fri May  6 09:40:59 2022
     Host name              : loke                                    


                  **********************************************
                  *** ABACUS - Excitation energies (.EXCITA) ***
                  **********************************************

  Time used in EXCITA     is       2.20 seconds


   ***************************************************************************
   ************************ FINAL RESULTS from ABACUS ************************
   ***************************************************************************


 
     Date and time (Linux)  : Fri May  6 09:41:01 2022
     Host name              : loke                                    


                             Molecular geometry (au)
                             -----------------------

 C         -0.2746433464           -1.0332455534            0.0011470638
 C          2.4075280908           -1.7243202870           -0.0003155843
 C          3.0804727920           -4.1719294689           -0.0002494438
 O         -1.0584431615            1.1507997464            0.0010091138
 H         -1.6476597673           -2.6200277935            0.0023678268
 H          3.7878577518           -0.1916503544           -0.0013417055
 H          1.6611221762           -5.6704728374            0.0009146274
 H          5.0556277659           -4.7560230271           -0.0012717857





                        Molecular wave function and energy
                        ----------------------------------

     Spatial symmetry   1 ( A   )
     Spin multiplicity  1
     2 * M_S            0
     State number       1
     Total charge       0

     Total energy       -188.3680196360 au (Hartrees)
                         -5125.75455519 eV
                           -494560.1593 kJ/mol
                           -118202.7149 kcal/mol


                   Scalar Breit-Pauli relativistic corrections
                   -------------------------------------------

     Darwin correction:                          0.2461644060 au
     Mass-velocity correction:                  -0.3142780478 au

     Total relativistic correction:             -0.0681136418 au ( 0.0362%)
     Non-relativistic + relativistic energy:  -188.4361332779 au



      (Note that these corrections are NOT included in the results below.)


                                  Dipole moment
                                  -------------

                 au               Debye          C m (/(10**-30)
              0.861385           2.189421           7.303123


                             Dipole moment components
                             ------------------------

                 au               Debye          C m (/(10**-30)

      x      0.41849034         1.06369628         3.54810886
      y     -0.75289398        -1.91366551        -6.38330103
      z     -0.00002193        -0.00005574        -0.00018593


   Units:   1 a.u. =   2.54175 Debye 
            1 a.u. =   8.47835 (10**-30) C m (SI)




@               Singlet electronic excitation energies
                --------------------------------------

               ========================================
                 Sym.   Mode   Frequency    Frequency
                ex. st.  No.      (au)         (eV)
               ----------------------------------------
                   1      1     0.137726     3.747710
                   1      2     0.324794     8.838100
                   1      3     0.330517     8.993815
                   1      4     0.377856    10.281984
               ========================================


@               Electric transition dipole moments (au)
                ---------------------------------------

@        Mode    Frequency       Velocity/Frequency              Length
@         No.      (au)          x       y       z         x       y       z
@==============================================================================
@           1     0.137726    -0.0000  0.0000 -0.0045   -0.0000  0.0000 -0.0041
@           2     0.324794    -0.0000 -0.0006 -0.4370    0.0003 -0.0008 -0.2092
@           3     0.330517    -0.4711  0.8470 -0.0001   -0.8025  1.4607  0.0001
@           4     0.377856    -0.0001  0.0000 -0.0863   -0.0001  0.0001 -0.0421
@------------------------------------------------------------------------------


@                              Oscillator strengths
                               --------------------

@  Oscillator strengths are dimensionless.

@  Sym.   Mode        Frequency     Oscillator-strength
@ ex. st.  No.           (eV)        velocity   length
@ -------------------------------------------------------
@  1        1         3.747710        0.0000   0.0000
@  1        2         8.838100        0.0414   0.0095
@  1        3         8.993815        0.2070   0.6120
@  1        4        10.281984        0.0019   0.0004


   Interatomic separations (in Angstrom):
   --------------------------------------

            C           C           C           O           H           H     
            ------      ------      ------      ------      ------      ------
 C     :    0.000000
 C     :    1.465700    0.000000
 C     :    2.431231    1.343281    0.000000
 O     :    1.227919    2.383018    3.568007    0.000000
 H     :    1.110397    2.197637    2.633349    2.019650    0.000000
 H     :    2.195429    1.091490    2.139278    2.661125    3.150355    0.000000
 H     :    2.659139    2.125241    1.092234    3.885970    2.381489    3.110036
 H     :    3.440501    2.130137    1.089951    4.498704    3.722962    2.506800

            H           H     
            ------      ------
 H     :    0.000000
 H     :    1.860334    0.000000


  Max    interatomic separation is    4.4987 Angstrom (    8.5013 Bohr)
  between atoms    8 and    4, "H     " and "O     ".

  Min HX interatomic separation is    1.0900 Angstrom (    2.0597 Bohr)

  Min YX interatomic separation is    1.2279 Angstrom (    2.3204 Bohr)


  Bond distances (Angstrom):
  --------------------------

                  atom 1     atom 2       distance
                  ------     ------       --------
  bond distance:  C          C            1.465700
  bond distance:  C          C            1.343281
  bond distance:  O          C            1.227919
  bond distance:  H          C            1.110397
  bond distance:  H          C            1.091490
  bond distance:  H          C            1.092234
  bond distance:  H          C            1.089951


  Bond angles (degrees):
  ----------------------

                  atom 1     atom 2     atom 3         angle
                  ------     ------     ------         -----
  bond angle:     C          C          O            124.190
  bond angle:     C          C          H            116.421
  bond angle:     O          C          H            119.389
  bond angle:     C          C          C            119.821
  bond angle:     C          C          H            117.558
  bond angle:     C          C          H            122.621
  bond angle:     C          C          H            121.182
  bond angle:     C          C          H            121.847
  bond angle:     H          C          H            116.971




 CPU time statistics for ABACUS
 ------------------------------

 EXCITA     00:00:02     100 %

 TOTAL      00:00:02     100 %


  Total CPU  time used in ABACUS:   2.21 seconds
  Total wall time used in ABACUS:   2.21 seconds


                   .-------------------------------------------.
                   | End of Static Property Section (ABACUS) - |
                   `-------------------------------------------'

  Total CPU  time used in DALTON:   7.24 seconds
  Total wall time used in DALTON:   7.24 seconds

 
     Date and time (Linux)  : Fri May  6 09:41:01 2022
     Host name              : loke                                    
