

     ************************************************************************
     *************** Dalton - An Electronic Structure Program ***************
     ************************************************************************

    This is output from DALTON release Dalton2021.alpha (2020)
         ( Web site: http://daltonprogram.org )

   ----------------------------------------------------------------------------

    NOTE:
     
    Dalton is an experimental code for the evaluation of molecular
    properties using (MC)SCF, DFT, CI, and CC wave functions.
    The authors accept no responsibility for the performance of
    the code or for the correctness of the results.
     
    The code (in whole or part) is provided under a licence and
    is not to be reproduced for further distribution without
    the written permission of the authors or their representatives.
     
    See the home page "http://daltonprogram.org" for further information.
     
    If results obtained with this code are published,
    the appropriate citations would be both of:
     
       K. Aidas, C. Angeli, K. L. Bak, V. Bakken, R. Bast,
       L. Boman, O. Christiansen, R. Cimiraglia, S. Coriani,
       P. Dahle, E. K. Dalskov, U. Ekstroem,
       T. Enevoldsen, J. J. Eriksen, P. Ettenhuber, B. Fernandez,
       L. Ferrighi, H. Fliegl, L. Frediani, K. Hald, A. Halkier,
       C. Haettig, H. Heiberg, T. Helgaker, A. C. Hennum,
       H. Hettema, E. Hjertenaes, S. Hoest, I.-M. Hoeyvik,
       M. F. Iozzi, B. Jansik, H. J. Aa. Jensen, D. Jonsson,
       P. Joergensen, J. Kauczor, S. Kirpekar,
       T. Kjaergaard, W. Klopper, S. Knecht, R. Kobayashi, H. Koch,
       J. Kongsted, A. Krapp, K. Kristensen, A. Ligabue,
       O. B. Lutnaes, J. I. Melo, K. V. Mikkelsen, R. H. Myhre,
       C. Neiss, C. B. Nielsen, P. Norman, J. Olsen,
       J. M. H. Olsen, A. Osted, M. J. Packer, F. Pawlowski,
       T. B. Pedersen, P. F. Provasi, S. Reine, Z. Rinkevicius,
       T. A. Ruden, K. Ruud, V. Rybkin, P. Salek, C. C. M. Samson,
       A. Sanchez de Meras, T. Saue, S. P. A. Sauer,
       B. Schimmelpfennig, K. Sneskov, A. H. Steindal,
       K. O. Sylvester-Hvid, P. R. Taylor, A. M. Teale,
       E. I. Tellgren, D. P. Tew, A. J. Thorvaldsen, L. Thoegersen,
       O. Vahtras, M. A. Watson, D. J. D. Wilson, M. Ziolkowski
       and H. Agren,
       "The Dalton quantum chemistry program system",
       WIREs Comput. Mol. Sci. 2014, 4:269–284 (doi: 10.1002/wcms.1172)
     
    and
     
       Dalton, a molecular electronic structure program,
       Release Dalton2021.alpha (2020), see http://daltonprogram.org
   ----------------------------------------------------------------------------

    Authors in alphabetical order (Major contribution(s) in parenthesis):

  Kestutis Aidas,           Vilnius University,           Lithuania   (QM/MM)
  Celestino Angeli,         University of Ferrara,        Italy       (NEVPT2)
  Keld L. Bak,              UNI-C,                        Denmark     (AOSOPPA, non-adiabatic coupling, magnetic properties)
  Vebjoern Bakken,          University of Oslo,           Norway      (DALTON; geometry optimizer, symmetry detection)
  Radovan Bast,             UiT The Arctic U. of Norway,  Norway      (DALTON installation and execution frameworks)
  Pablo Baudin,             University of Valencia,       Spain       (Cholesky excitation energies)
  Linus Boman,              NTNU,                         Norway      (Cholesky decomposition and subsystems)
  Bruno N. Cabral Tenorio,  Technical Univ. of Denmark,   Denmark     (Lanczos-based CC methods)
  Ove Christiansen,         Aarhus University,            Denmark     (CC module)
  Renzo Cimiraglia,         University of Ferrara,        Italy       (NEVPT2)
  Sonia Coriani,            Technical Univ. of Denmark,   Denmark     (CC and RESPONS modules)
  Janusz Cukras,            University of Warsaw,         Poland      (MChD in RESPONS)
  Paal Dahle,               University of Oslo,           Norway      (Parallelization)
  Erik K. Dalskov,          UNI-C,                        Denmark     (SOPPA)
  Thomas Enevoldsen,        Univ. of Southern Denmark,    Denmark     (SOPPA)
  Janus J. Eriksen,         Aarhus University,            Denmark     (Polarizable embedding, TDA)
  Rasmus Faber,             Technical Univ. of Denmark,   Denmark     (Vib.avg. NMR w. SOPPA, parallel AO-SOPPA, CVS-CC and EOMCC)
  Tobias Fahleson,          KTH Stockholm,                Sweden      (Damped cubic response)
  Berta Fernandez,          U. of Santiago de Compostela, Spain       (Doublet spin, ESR in RESPONS)
  Lara Ferrighi,            Aarhus University,            Denmark     (PCM Cubic response)
  Heike Fliegl,             University of Oslo,           Norway      (CCSD(R12))
  Luca Frediani,            UiT The Arctic U. of Norway,  Norway      (PCM)
  Emmanuel Fromager,        Univ. Strasbourg,             France      (MC-srDFT)
  Bin Gao,                  UiT The Arctic U. of Norway,  Norway      (Gen1Int library)
  Andre S. P. Gomes,        CNRS/Universite de Lille,     France      (Frozen density embedding)
  Christof Haettig,         Ruhr-University Bochum,       Germany     (CC module)
  Kasper Hald,              Aarhus University,            Denmark     (CC module)
  Asger Halkier,            Aarhus University,            Denmark     (CC module)
  Frederik Beyer Hansen,    University of Copenhagen,     Denmark     (Parallel AO-SOPPA)
  Erik D. Hedegaard,        Univ. of Southern Denmark,    Denmark     (Polarizable embedding, QM/MM, and MC-srDFT)
  Hanne Heiberg,            University of Oslo,           Norway      (Geometry analysis, selected one-electron integrals)
  Trygve Helgaker,          University of Oslo,           Norway      (DALTON; ABACUS, ERI, DFT modules, London, and much more)
  Alf Christian Hennum,     University of Oslo,           Norway      (Parity violation)
  Hinne Hettema,            University of Auckland,       New Zealand (Quadratic response in RESPONS; SIRIUS supersymmetry)
  Eirik Hjertenaes,         NTNU,                         Norway      (Cholesky decomposition)
  Pi A. B. Haase,           University of Copenhagen,     Denmark     (Triplet AO-SOPPA)
  Maria Francesca Iozzi,    University of Oslo,           Norway      (RPA)
  Christoph Jacob           TU Braunschweig               Germany     (Frozen density embedding)
  Brano Jansik              Technical Univ. of Ostrava    Czech Rep.  (DFT cubic response)
  Hans Joergen Aa. Jensen,  Univ. of Southern Denmark,    Denmark     (DALTON; SIRIUS, RESPONS, ABACUS, MC-srDFT, and much more)
  Dan Jonsson,              UiT The Arctic U. of Norway,  Norway      (Cubic response in RESPONS module)
  Poul Joergensen,          Aarhus University,            Denmark     (RESPONS, ABACUS, and CC modules)
  Maciej Kaminski,          University of Warsaw,         Poland      (CPPh in RESPONS)
  Joanna Kauczor,           Linkoeping University,        Sweden      (Complex polarization propagator (CPP) module)
  Sheela Kirpekar,          Univ. of Southern Denmark,    Denmark     (Mass-velocity & Darwin integrals)
  Erik Kjellgren,           Univ. of Southern Denmark,    Denmark     (MC-srDFT)
  Wim Klopper,              KIT Karlsruhe,                Germany     (R12 code in CC, SIRIUS, and ABACUS modules)
  Stefan Knecht,            ETH Zurich,                   Switzerland (Parallel CI and MCSCF, MC-srDFT)
  Rika Kobayashi,           Australian National Univ.,    Australia   (DIIS in CC, London in MCSCF)
  Henrik Koch,              NTNU,                         Norway      (CC module, Cholesky decomposition)
  Jacob Kongsted,           Univ. of Southern Denmark,    Denmark     (Polarizable embedding, polarizable density embedding, QM/MM)
  Andrea Ligabue,           University of Modena,         Italy       (CTOCD, AOSOPPA)
  Nanna H. List             Univ. of Southern Denmark,    Denmark     (Polarizable embedding)
  Ola B. Lutnaes,           University of Oslo,           Norway      (DFT Hessian)
  Juan I. Melo,             University of Buenos Aires,   Argentina   (LRESC, Relativistic Effects on NMR Shieldings)
  Kurt V. Mikkelsen,        University of Copenhagen,     Denmark     (MC-SCRF and QM/MM)
  Rolf H. Myhre,            NTNU,                         Norway      (Subsystems and CC3)
  Christian Neiss,          Univ. Erlangen-Nuernberg,     Germany     (CCSD(R12))
  Christian B. Nielsen,     University of Copenhagen,     Denmark     (QM/MM)
  Patrick Norman,           KTH Stockholm,                Sweden      (Cubic response and complex frequency response in RESPONS)
  Jeppe Olsen,              Aarhus University,            Denmark     (SIRIUS CI/density modules)
  Jogvan Magnus H. Olsen,   Aarhus University,            Denmark     (Polarizable embedding and polarizable density embedding)
  Anders Osted,             Copenhagen University,        Denmark     (QM/MM)
  Martin J. Packer,         University of Sheffield,      UK          (SOPPA)
  Filip Pawlowski,          Kazimierz Wielki University,  Poland      (CC3)
  Morten N. Pedersen,       Univ. of Southern Denmark,    Denmark     (Polarizable embedding)
  Thomas B. Pedersen,       University of Oslo,           Norway      (Cholesky decomposition)
  Patricio F. Provasi,      University of Northeastern,   Argentina   (Analysis of coupling constants in localized orbitals)
  Peter Reinholdt,          Univ. of Southern Denmark,    Denmark     (Polarizable embedding and polarizable density embedding)
  Zilvinas Rinkevicius,     KTH Stockholm,                Sweden      (open-shell DFT, ESR)
  Elias Rudberg,            KTH Stockholm,                Sweden      (DFT grid and basis info)
  Torgeir A. Ruden,         University of Oslo,           Norway      (Numerical derivatives in ABACUS)
  Kenneth Ruud,             UiT The Arctic U. of Norway,  Norway      (DALTON; ABACUS magnetic properties and much more)
  Pawel Salek,              KTH Stockholm,                Sweden      (DALTON; DFT code)
  Claire C. M. Samson       University of Karlsruhe       Germany     (Boys localization, r12 integrals in ERI)
  Alfredo Sanchez de Meras, University of Valencia,       Spain       (CC module, Cholesky decomposition)
  Trond Saue,               Paul Sabatier University,     France      (direct Fock matrix construction)
  Stephan P. A. Sauer,      University of Copenhagen,     Denmark     (SOPPA(CCSD), SOPPA prop., AOSOPPA, vibrational g-factors)
  Bernd Schimmelpfennig,    Forschungszentrum Karlsruhe,  Germany     (AMFI module)
  Anna K. Schnack-Petersen, University of Copenhagen,     Denmark     (RPA(D) and HRPA(D) properties in AOSOPPA)
  Kristian Sneskov,         Aarhus University,            Denmark     (Polarizable embedding, QM/MM)
  Arnfinn H. Steindal,      UiT The Arctic U. of Norway,  Norway      (parallel QM/MM, polarizable embedding)
  Casper Steinmann,         Aalborg University,           Denmark     (QFIT, polarizable embedding)
  K. O. Sylvester-Hvid,     University of Copenhagen,     Denmark     (MC-SCRF)
  Peter R. Taylor,          VLSCI/Univ. of Melbourne,     Australia   (Symmetry handling ABACUS, integral transformation)
  Andrew M. Teale,          University of Nottingham,     England     (DFT-AC, DFT-D)
  David P. Tew,             University of Bristol,        England     (CCSD(R12))
  Julien Toulouse,          Sorbonne Univ.,               France      (MC-srDFT)
  Olav Vahtras,             KTH Stockholm,                Sweden      (Triplet response, spin-orbit, ESR, TDDFT, open-shell DFT)
  Lucas Visscher,           Vrije Universiteit Amsterdam, Netherlands (Frozen density embedding)
  David J. Wilson,          La Trobe University,          Australia   (DFT Hessian and DFT magnetizabilities)
  Hans Agren,               KTH Stockholm,                Sweden      (SIRIUS module, RESPONS, MC-SCRF solvation)
 --------------------------------------------------------------------------------

     Date and time (Darwin) : Wed Sep  8 13:58:06 2021
     Host name              : dhcpu489.scarlan.ki.ku.dk               

 * Work memory size             :    64000000 =  488.28 megabytes.

 * Directories for basis set searches:
   1) /Users/aehb/Desktop/dalton/build
   2) /Users/aehb/Desktop/dalton/build/basis


Compilation information
-----------------------

 Who compiled             | aehb
 Host                     | dhcpu489.scarlan.ki.ku.dk
 System                   | Darwin-20.6.0
 CMake generator          | Unix Makefiles
 Processor                | x86_64
 64-bit integers          | ON
 MPI                      | OFF
 Fortran compiler         | /usr/local/bin/gfortran-9
 Fortran compiler version | unknown
 C compiler               | /usr/local/bin/gcc-9
 C compiler version       | unknown
 C++ compiler             | /usr/local/bin/g++-9
 C++ compiler version     | unknown
 Static linking           | OFF
 Last Git revision        | fa599765286400e21cdecd12a2b39ddd94ac2dc6
 Git branch               | MP3_energy
 Configuration time       | 2021-09-08 11:53:55.624425


   Content of the .dal input file
 ----------------------------------

**DALTON
.RUN WAVE FUNCTIONS
**WAVE FUNCTIONS
.CC
*CC INP
.MP3
**END OF


   Content of the .mol file
 ----------------------------

BASIS
6-31G
Test system for MP3 energy series.

Atomtypes=2 Symmetry Angstrom Charge=0
Charge=8 Atoms=1
O  0.000000  0.000000  0.000000
Charge=1 Atoms=2
H  0.758602  0.000000  0.504284
H  0.758602  0.000000  -0.504284


       *******************************************************************
       *********** Output from DALTON general input processing ***********
       *******************************************************************

 --------------------------------------------------------------------------------
   Overall default print level:    0
   Print level for DALTON.STAT:    1

    HERMIT 1- and 2-electron integral sections will be executed
    "Old" integral transformation used (limited to max 255 basis functions)
    Wave function sections will be executed (SIRIUS module)
 --------------------------------------------------------------------------------


   ****************************************************************************
   *************** Output of molecule and basis set information ***************
   ****************************************************************************


    The two title cards from your ".mol" input:
    ------------------------------------------------------------------------
 1: Test system for MP3 energy series.                                      
 2:                                                                         
    ------------------------------------------------------------------------

  Coordinates are entered in Angstrom and converted to atomic units.
          - Conversion factor : 1 bohr = 0.52917721 A

  Atomic type no.    1
  --------------------
  Nuclear charge:   8.00000
  Number of symmetry independent centers:    1
  Number of basis sets to read;    2
  Basis set file used for this atomic type with Z =   8 :
     "/Users/aehb/Desktop/dalton/build/basis/6-31G"

  Info about the basis set file: your basis has no documentation.
  Basis set: 6-31G                                                                           

  Atomic type no.    2
  --------------------
  Nuclear charge:   1.00000
  Number of symmetry independent centers:    2
  Number of basis sets to read;    2
  Basis set file used for this atomic type with Z =   1 :
     "/Users/aehb/Desktop/dalton/build/basis/6-31G"

  Info about the basis set file: your basis has no documentation.
  Basis set: 6-31G                                                                           


                      SYMADD: Requested addition of symmetry
                      --------------------------------------

 Symmetry test threshold:  5.00E-06

@   The molecule is centered at center of mass and rotated
@   so principal axes of inertia are along coordinate axes.

 Symmetry class found: C(2v)          

 Symmetry Independent Centres             
 ----------------------------
O      8 :      0.00000000     0.00000000    -0.16043556  Isotope  1
H      1 :      0.00000000     0.95295865     1.27311446  Isotope  1

 The following symmetry elements were found:   X  Y     


                         SYMGRP: Point group information
                         -------------------------------

@    Full point group is: C(2v)          
@    Represented as:      C2v

@  * The irrep name for each symmetry:    1: A1     2: B1     3: B2     4: A2 

   * The point group was generated by:

      Reflection in the yz-plane
      Reflection in the xz-plane

   * Group multiplication table

        |  E   C2z  Oxz  Oyz
   -----+--------------------
     E  |  E   C2z  Oxz  Oyz
    C2z | C2z   E   Oyz  Oxz
    Oxz | Oxz  Oyz   E   C2z
    Oyz | Oyz  Oxz  C2z   E 

   * Character table

        |  E   C2z  Oxz  Oyz
   -----+--------------------
    A1  |   1    1    1    1
    B1  |   1   -1    1   -1
    B2  |   1   -1   -1    1
    A2  |   1    1   -1   -1

   * Direct product table

        | A1   B1   B2   A2 
   -----+--------------------
    A1  | A1   B1   B2   A2 
    B1  | B1   A1   A2   B2 
    B2  | B2   A2   A1   B1 
    A2  | A2   B2   B1   A1 


                                 Isotopic Masses
                                 ---------------

                           O          15.994915
                           H   _1      1.007825
                           H   _2      1.007825

                       Total mass:    18.010565 amu
                       Natural abundance:  99.730 %

 Center-of-mass coordinates (a.u.):    0.000000    0.000000    0.000000
 Center-of-mass coordinates (Angs):    0.000000    0.000000    0.000000


  Atoms and basis sets
  --------------------

  Number of atom types :    2
  Total number of atoms:    3

  Basis set used is "6-31G" from the basis set library.

  label    atoms   charge   prim   cont     basis
  ----------------------------------------------------------------------
  O           1    8.0000    22     9      [10s4p|3s2p]                                       
  H           2    1.0000     4     2      [4s|2s]                                            
  ----------------------------------------------------------------------
  total:      3   10.0000    30    13
  ----------------------------------------------------------------------

  Threshold for neglecting AO integrals:  1.00D-12


  Cartesian Coordinates (a.u.)
  ----------------------------

  Total number of coordinates:    9
  O       :     1  x   0.0000000000    2  y   0.0000000000    3  z  -0.1604355607
  H   / 1 :     4  x   0.0000000000    5  y   0.9529586492    6  z   1.2731144572
  H   / 2 :     7  x   0.0000000000    8  y  -0.9529586492    9  z   1.2731144572


  Symmetry Coordinates
  --------------------

  Number of coordinates in each symmetry:     3    2    3    1

  Symmetry  A1  ( 1)

    1   O     z    3
    2   H     y    [  5  -    8 ]/2
    3   H     z    [  6  +    9 ]/2

  Symmetry  B1  ( 2)

    4   O     x    1
    5   H     x    [  4  +    7 ]/2

  Symmetry  B2  ( 3)

    6   O     y    2
    7   H     y    [  5  +    8 ]/2
    8   H     z    [  6  -    9 ]/2

  Symmetry  A2  ( 4)

    9   H     x    [  4  -    7 ]/2


   Interatomic separations (in Angstrom):
   --------------------------------------

            O           H   _1      H   _2
            ------      ------      ------
 O     :    0.000000
 H   _1:    0.910922    0.000000
 H   _2:    0.910922    1.008568    0.000000


  Max    interatomic separation is    1.0086 Angstrom (    1.9059 Bohr)
  between atoms    3 and    2, "H   _2" and "H   _1".

  Min HX interatomic separation is    0.9109 Angstrom (    1.7214 Bohr)


  Bond distances (Angstrom):
  --------------------------

                  atom 1     atom 2       distance
                  ------     ------       --------
  bond distance:  H   _1     O            0.910922
  bond distance:  H   _2     O            0.910922


  Bond angles (degrees):
  ----------------------

                  atom 1     atom 2     atom 3         angle
                  ------     ------     ------         -----
  bond angle:     H   _1     O          H   _2        67.228




 Principal moments of inertia (u*A**2) and principal axes
 --------------------------------------------------------

   IA       0.512585          0.000000    0.000000    1.000000
   IB       1.030143          0.000000    1.000000    0.000000
   IC       1.542728          1.000000    0.000000    0.000000


 Rotational constants
 --------------------

@    The molecule is planar.

               A                   B                   C

         985942.7459         490590.9223         327587.8982 MHz
           32.887510           16.364352           10.927156 cm-1


@  Nuclear repulsion energy :    9.819476507556 Hartree


  Symmetry Orbitals
  -----------------

  Number of orbitals in each symmetry:           7    2    4    0


  Symmetry  A1 ( 1)

    1     O        1s         1
    2     O        1s         2
    3     O        1s         3
    4     O        2pz        6
    5     O        2pz        9
    6     H        1s        10 +   11
    7     H        1s        12 +   13


  Symmetry  B1 ( 2)

    8     O        2px        4
    9     O        2px        7


  Symmetry  B2 ( 3)

   10     O        2py        5
   11     O        2py        8
   12     H        1s        10 -   11
   13     H        1s        12 -   13


  No orbitals in symmetry  A2 ( 4)

  Symmetries of electric field:  B1 (2)  B2 (3)  A1 (1)

  Symmetries of magnetic field:  B2 (3)  B1 (2)  A2 (4)


                     .---------------------------------------.
                     | Starting in Integral Section (HERMIT) |
                     `---------------------------------------'



 ***************************************************************************************
 ****************** Output from **INTEGRALS input processing (HERMIT) ******************
 ***************************************************************************************


 - Using defaults, no **INTEGRALS input found

 Default print level:        1

 Calculation of one- and two-electron Hamiltonian integrals.

 Center of mass  (bohr):      0.000000000000      0.000000000000      0.000000000000
 Operator center (bohr):      0.000000000000      0.000000000000      0.000000000000
 Gauge origin    (bohr):      0.000000000000      0.000000000000      0.000000000000
 Dipole origin   (bohr):      0.000000000000      0.000000000000      0.000000000000

Calculation of 2-electron integrals are postponed until they are needed.


     ************************************************************************
     ************************** Output from HERINT **************************
     ************************************************************************



                      Nuclear contribution to dipole moments
                      --------------------------------------

                 au               Debye          C m (/(10**-30)

      z      1.26274443         3.20957599        10.70599311


  Total CPU  time used in HERMIT:   0.00 seconds
  Total wall time used in HERMIT:   0.00 seconds


                        .----------------------------------.
                        | End of Integral Section (HERMIT) |
                        `----------------------------------'



                   .--------------------------------------------.
                   | Starting in Wave Function Section (SIRIUS) |
                   `--------------------------------------------'


 *** Output from Huckel module :

     Using EWMO model:          F
     Using EHT  model:          T
     Number of Huckel orbitals each symmetry:    4    1    2    0

 Huckel EHT eigenvalues for symmetry :  1
          -20.710744      -1.554752      -0.712706      -0.284626

 Huckel EHT eigenvalues for symmetry :  2
           -0.616200

 Huckel EHT eigenvalues for symmetry :  3
           -0.670516      -0.230357

 **********************************************************************
 *SIRIUS* a direct, restricted step, second order MCSCF program       *
 **********************************************************************

 
     Date and time (Darwin) : Wed Sep  8 13:58:06 2021
     Host name              : dhcpu489.scarlan.ki.ku.dk               

 Title lines from ".mol" input file:
     Test system for MP3 energy series.                                      
                                                                             

 Print level on unit LUPRI =   2 is   0
 Print level on unit LUW4  =   2 is   5

@    (Integral direct) CC calculation.

@    This is a combination run starting with
@              a restricted, closed shell Hartree-Fock calculation


 Initial molecular orbitals are obtained according to
 ".MOSTART EHT   " input option

     Wave function specification
     ============================

     For the specification of the Coupled Cluster: see below.

@    Wave function type        --- CC ---
@    Number of closed shell electrons          10
@    Number of electrons in active shells       0
@    Total charge of the molecule               0

@    Spin multiplicity and 2 M_S                1         0
@    Total number of symmetries                 4 (point group: C2v)
@    Reference state symmetry                   1 (irrep name : A1 )

     Orbital specifications
     ======================
@    Abelian symmetry species          All |    1    2    3    4
@                                          |  A1   B1   B2   A2 
                                       --- |  ---  ---  ---  ---
@    Total number of orbitals           13 |    7    2    4    0
@    Number of basis functions          13 |    7    2    4    0

      ** Automatic occupation of RHF orbitals **

      -- Initial occupation of symmetries is determined from extended Huckel guess.           
      -- Initial occupation of symmetries is :
@    Occupied SCF orbitals               5 |    3    1    1    0

     Maximum number of Fock   iterations      0
     Maximum number of DIIS   iterations     60
     Maximum number of QC-SCF iterations     60
     Threshold for SCF convergence     1.00D-06


 Changes of defaults for CC:
 ---------------------------

  


 ***********************************************
 ***** DIIS acceleration of SCF iterations *****
 ***********************************************

 C1-DIIS algorithm; max error vectors =    8

 Automatic occupation of symmetries with  10 electrons.

 Iter     Total energy    Error norm  Delta(E)    SCF occupation
 -----------------------------------------------------------------------------

Calculating AOSUPINT

---> (Re)generating AOTWOINT


     ************************************************************************
     ************************** Output from HERINT **************************
     ************************************************************************


 Threshold for neglecting two-electron integrals:  1.00D-12
 HERMIT - Number of two-electron integrals written:        1270 ( 30.3% )
 HERMIT - Megabytes written:                              0.021

     (Precalculated AO two-electron integrals are transformed to P-supermatrix elements.
      Threshold for discarding integrals :  1.00D-12 )
@  1  -75.6292518691       2.37D+00  -7.56D+01     3   1   1   0
      Virial theorem: -V/T =      1.991882
@    MULPOP   O      -0.59; H   _1  0.30; H   _2  0.30; 
   1  Level shift: doubly occupied orbital energies shifted by -2.00D-01
 -----------------------------------------------------------------------------
@  2  -75.8953008320       4.30D-01  -2.66D-01     3   1   1   0
      Virial theorem: -V/T =      1.997433
@    MULPOP   O      -0.59; H   _1  0.29; H   _2  0.29; 
   2  Level shift: doubly occupied orbital energies shifted by -5.00D-02
 -----------------------------------------------------------------------------
@  3  -75.9110963531       8.70D-02  -1.58D-02     3   1   1   0
      Virial theorem: -V/T =      1.994856
@    MULPOP   O      -0.64; H   _1  0.32; H   _2  0.32; 
   3  Level shift: doubly occupied orbital energies shifted by -1.25D-02
 -----------------------------------------------------------------------------
@  4  -75.9118288648       2.58D-02  -7.33D-04     3   1   1   0
      Virial theorem: -V/T =      1.995502
@    MULPOP   O      -0.65; H   _1  0.33; H   _2  0.33; 
 -----------------------------------------------------------------------------
@  5  -75.9118752566       8.47D-03  -4.64D-05     3   1   1   0
      Virial theorem: -V/T =      1.995047
@    MULPOP   O      -0.66; H   _1  0.33; H   _2  0.33; 
 -----------------------------------------------------------------------------
@  6  -75.9118846859       2.06D-03  -9.43D-06     3   1   1   0
      Virial theorem: -V/T =      1.995174
@    MULPOP   O      -0.66; H   _1  0.33; H   _2  0.33; 
 -----------------------------------------------------------------------------
@  7  -75.9118854842       1.55D-04  -7.98D-07     3   1   1   0
      Virial theorem: -V/T =      1.995174
@    MULPOP   O      -0.66; H   _1  0.33; H   _2  0.33; 
 -----------------------------------------------------------------------------
@  8  -75.9118854865       2.18D-05  -2.36D-09     3   1   1   0
      Virial theorem: -V/T =      1.995175
@    MULPOP   O      -0.66; H   _1  0.33; H   _2  0.33; 
 -----------------------------------------------------------------------------
@  9  -75.9118854866       3.65D-06  -5.50D-11     3   1   1   0
      Virial theorem: -V/T =      1.995175
@    MULPOP   O      -0.66; H   _1  0.33; H   _2  0.33; 
 -----------------------------------------------------------------------------
@ 10  -75.9118854866       2.46D-07  -1.63D-12     3   1   1   0

@ *** DIIS converged in  10 iterations !
@     Converged SCF energy, gradient:    -75.911885486601    2.46D-07
    - total time used in SIRFCK :              0.00 seconds


 *** SCF orbital energy analysis ***

 Number of electrons        :   10
 Closed shell orbitals      :    3    1    1    0

 Sym       Hartree-Fock orbital energies

1 A1    -20.57038842    -1.43873191    -0.64641467     0.18975962     1.21186578
          1.27925098     1.68136209

2 B1     -0.51790104     1.15390814

3 B2     -0.64435258     0.31174956     1.00598464     1.37885430

    E(LUMO) :     0.18975962 au (symmetry 1)
  - E(HOMO) :    -0.51790104 au (symmetry 2)
  ------------------------------------------
    gap     :     0.70766066 au

 --- Writing SIRIFC interface file

--------------------------------------------------------------------------------


     .---------------------------------------------------------------.
     | HF-SCF KT IPs [a.u. & eV], pole strengths, and Dyson orbitals |
     `---------------------------------------------------------------'

     HF-SCF KT symmetry 1 ( A1 ) in point group C2v -- 3 principal poles

   ============  ============  ============
      20.570388      1.438732      0.646415
     559.748743     39.149887     17.589838
   ------------  ------------  ------------
       1.000000      1.000000      1.000000
   ============  ============  ============
       1.000000     -0.000000      0.000000
       0.000000      1.000000      0.000000
      -0.000000     -0.000000      1.000000
   ============  ============  ============
  
     HF-SCF KT symmetry 2 ( B1 ) in point group C2v -- 1 principal poles

   ============
       0.517901
      14.092804
   ------------
       1.000000
   ============
       1.000000
   ============
  
     HF-SCF KT symmetry 3 ( B2 ) in point group C2v -- 1 principal poles

   ============
       0.644353
      17.533725
   ------------
       1.000000
   ============
       1.000000
   ============
  

@ Summary of HF-SCF KT ionization potentials [eV] and pole strengths:

@ Symmetry 1 (A1 ) :   559.749      39.150      17.590
@ Pole strengths   :     1.000       1.000       1.000

@ Symmetry 2 (B1 ) :    14.093
@ Pole strengths   :     1.000

@ Symmetry 3 (B2 ) :    17.534
@ Pole strengths   :     1.000

@ Symmetry 4 (A2 ) :  No IPs in this symmetry

  === End of HF-SCF KT output ===
--------------------------------------------------------------------------------


 CPU and wall time for SCF :       0.008       0.011


                       .-----------------------------------.
                       | --- Final results from SIRIUS --- |
                       `-----------------------------------'


@    Spin multiplicity:           1
@    Spatial symmetry:            1 ( irrep  A1  in C2v )
@    Total charge of molecule:    0

@    Final HF energy:             -75.911885486601                 
@    Nuclear repulsion:             9.819476507556
@    Electronic energy:           -85.731361994156

@    Final gradient norm:           0.000000245584

 
     Date and time (Darwin) : Wed Sep  8 13:58:06 2021
     Host name              : dhcpu489.scarlan.ki.ku.dk               

File label for MO orbitals:   8Sep21   FOCKDIIS

 (Only coefficients > 0.0100 are printed.)

 Molecular orbitals for symmetry species 1  (A1 )
 ------------------------------------------------

    Orbital         1        2        3        4        5        6        7
   1 O   :1s     0.9958  -0.2024   0.1061   0.0730   0.0293  -0.0981  -0.0351
   2 O   :1s     0.0220   0.4535  -0.2363  -0.0828  -0.2061   0.6983   1.5820
   3 O   :1s    -0.0080   0.4098  -0.4543  -1.1330  -0.1323  -0.2875  -2.8887
   4 O   :2pz    0.0026   0.1620   0.4934  -0.2674   0.9908   0.2262   0.1602
   5 O   :2pz   -0.0024   0.0558   0.2814  -0.5636  -1.1363   0.7137  -1.3245
   6 H   :1s     0.0000   0.1812   0.2073   0.0244  -0.0796  -0.9771   0.6923
   7 H   :1s     0.0019  -0.0076   0.0880   0.9479   0.3324   0.4118   0.5782

 Molecular orbitals for symmetry species 2  (B1 )
 ------------------------------------------------

    Orbital         1        2
   1 O   :2px    0.6463  -0.9583
   2 O   :2px    0.5049   1.0398

 Molecular orbitals for symmetry species 3  (B2 )
 ------------------------------------------------

    Orbital         1        2        3        4
   1 O   :2py    0.5458  -0.3249  -0.0624  -1.0124
   2 O   :2py    0.3089  -0.7546   0.6795   1.3513
   3 H   :1s     0.2468   0.0751  -0.9424   0.2964
   4 H   :1s     0.1810   1.7917   0.6154  -1.2029

  Total CPU  time used in SIRIUS :   0.01 seconds
  Total wall time used in SIRIUS :   0.01 seconds

 
     Date and time (Darwin) : Wed Sep  8 13:58:06 2021
     Host name              : dhcpu489.scarlan.ki.ku.dk               


                     .---------------------------------------.
                     | End of Wave Function Section (SIRIUS) |
                     `---------------------------------------'



                    .------------------------------------------.
                    | Starting in Coupled Cluster Section (CC) |
                    `------------------------------------------'

  

 *******************************************************************************
 *******************************************************************************
 *                                                                             *
 *                                                                             *
 *                    START OF COUPLED CLUSTER CALCULATION                     *
 *                                                                             *
 *                                                                             *
 *******************************************************************************
 *******************************************************************************



 CCR12 ANSATZ =   0

 CCR12 APPROX =   0

   

 *******************************************************************
 *                                                                 *
 *----------                                             >---------*
 *---------- OUTPUT FROM COUPLED CLUSTER ENERGY PROGRAM  >---------*
 *----------                                             >---------*
 *                                                                 *
 *******************************************************************


             The Direct Coupled Cluster Energy Program
             -----------------------------------------


          Number of t1 amplitudes                 :        16
          Number of t2 amplitudes                 :       265
          Total number of amplitudes in ccsd      :       281



          Perturbation calculation - NO WAVEFUNCTION OPTIMIZATION
  

 *******************************************************************************
 *******************************************************************************
 *                                                                             *
 *                                                                             *
 *                           STARTING MP3 CALCULATION                          *
 *                                                                             *
 *                                                                             *
 *******************************************************************************
 *******************************************************************************



          Initializing calculation of first order amplitude corrections


          A wonder has occurred: We got the first order amplitude corrections!


          The second order correction to the energy is:  -0.1291187772


          Initializing calculation of second order amplitude corrections


          A wonder has occurred: We got the second order amplitude corrections!


          The third order correction to the energy is:  -0.0011831298
  

 *******************************************************************************
 *******************************************************************************
 *                                                                             *
 *                                                                             *
 *                            FINSHED MP3 CALCULATION                          *
 *                                                                             *
 *                                                                             *
 *******************************************************************************
 *******************************************************************************

  

 *******************************************************************************
 *******************************************************************************
 *                                                                             *
 *                                                                             *
 *                   SUMMARY OF COUPLED CLUSTER CALCULATION                    *
 *                                                                             *
 *                                                                             *
 *******************************************************************************
 *******************************************************************************

                                                                                
            Total SCF   energy:                         -75.9118854866          
                                                                                
            MP2 correction:                              -0.1291187772          
                                                                                
            Total MP2 energy:                           -76.0410042638          
                                                                                
            MP3 correction:                              -0.0011831298          
                                                                                
            Total MP3 energy:                           -76.0421873936          
  

 *******************************************************************************
 *******************************************************************************
 *                                                                             *
 *                                                                             *
 *                      END OF COUPLED CLUSTER CALCULATION                     *
 *                                                                             *
 *                                                                             *
 *******************************************************************************
 *******************************************************************************


 CPU and wall time for CC :       0.006       0.025

 
     Date and time (Darwin) : Wed Sep  8 13:58:06 2021
     Host name              : dhcpu489.scarlan.ki.ku.dk               


                      .-------------------------------------.
                      | End of Coupled Cluster Section (CC) |
                      `-------------------------------------'

  Total CPU  time used in DALTON:   0.03 seconds
  Total wall time used in DALTON:   0.05 seconds

 
     Date and time (Darwin) : Wed Sep  8 13:58:06 2021
     Host name              : dhcpu489.scarlan.ki.ku.dk               
