

     ************************************************************************
     *************** Dalton - An Electronic Structure Program ***************
     ************************************************************************

    This is output from DALTON release Dalton2022.0-dev (2022)
         ( Web site: http://daltonprogram.org )

   ----------------------------------------------------------------------------

    NOTE:
     
    Dalton is an experimental code for the evaluation of molecular
    properties using (MC)SCF, DFT, CI, and CC wave functions.
    The authors accept no responsibility for the performance of
    the code or for the correctness of the results.
     
    The code (in whole or part) is provided under a licence and
    is not to be reproduced for further distribution without
    the written permission of the authors or their representatives.
     
    See the home page "http://daltonprogram.org" for further information.
     
    If results obtained with this code are published,
    the appropriate citations would be both of:
     
       K. Aidas, C. Angeli, K. L. Bak, V. Bakken,
       R. Bast, L. Boman, O. Christiansen, R. Cimiraglia,
       S. Coriani, P. Dahle, E. K. Dalskov, U. Ekstroem,
       T. Enevoldsen, J. J. Eriksen, P. Ettenhuber, B. Fernandez,
       L. Ferrighi, H. Fliegl, L. Frediani, K. Hald, A. Halkier,
       C. Haettig, H. Heiberg, T. Helgaker, A. C. Hennum,
       H. Hettema, E. Hjertenaes, S. Hoest, I.-M. Hoeyvik,
       M. F. Iozzi, B. Jansik, H. J. Aa. Jensen, D. Jonsson,
       P. Joergensen, J. Kauczor, S. Kirpekar,
       T. Kjaergaard, W. Klopper, S. Knecht, R. Kobayashi, H. Koch,
       J. Kongsted, A. Krapp, K. Kristensen, A. Ligabue,
       O. B. Lutnaes, J. I. Melo, K. V. Mikkelsen, R. H. Myhre,
       C. Neiss, C. B. Nielsen, P. Norman, J. Olsen,
       J. M. H. Olsen, A. Osted, M. J. Packer, F. Pawlowski,
       T. B. Pedersen, P. F. Provasi, S. Reine, Z. Rinkevicius,
       T. A. Ruden, K. Ruud, V. Rybkin, P. Salek, C. C. M. Samson,
       A. Sanchez de Meras, T. Saue, S. P. A. Sauer,
       B. Schimmelpfennig, K. Sneskov, A. H. Steindal,
       K. O. Sylvester-Hvid, P. R. Taylor, A. M. Teale,
       E. I. Tellgren, D. P. Tew, A. J. Thorvaldsen, L. Thoegersen,
       O. Vahtras, M. A. Watson, D. J. D. Wilson, M. Ziolkowski
       and H. Agren,
       "The Dalton quantum chemistry program system",
       WIREs Comput. Mol. Sci. 2014, 4:269–284 (doi: 10.1002/wcms.1172)
     
    and
     
       Dalton, a molecular electronic structure program,
       Release Dalton2022.0-dev (2022), see http://daltonprogram.org
   ----------------------------------------------------------------------------

    Authors in alphabetical order (Major contribution(s) in parenthesis):

  Kestutis Aidas,              Vilnius University,        Lithuania   (QM/MM)
  Celestino Angeli,            University of Ferrara,     Italy       (NEVPT2)
  Juan J. Aucar,               Northeast National UniversiArgentina   (LRESC, Relativistic Effects on EFG)
  Keld L. Bak,                 UNI-C,                     Denmark     (AOSOPPA, non-adiabatic coupling, magnetic properties)
  Vebjoern Bakken,             University of Oslo,        Norway      (DALTON; geometry optimizer, symmetry detection)
  Radovan Bast,                UiT The Arctic U. of NorwayNorway      (DALTON installation and execution frameworks)
  Pablo Baudin,                University of Valencia,    Spain       (Cholesky excitation energies)
  Linus Boman,                 NTNU,                      Norway      (Cholesky decomposition and subsystems)
  Bruno N. Cabral Tenorio,     Technical Univ. of Denmark,Denmark     (Lanczos-based CC methods)
  Ove Christiansen,            Aarhus University,         Denmark     (CC module)
  Renzo Cimiraglia,            University of Ferrara,     Italy       (NEVPT2)
  Sonia Coriani,               Technical Univ. of Denmark,Denmark     (CC and RESPONS modules)
  Janusz Cukras,               University of Warsaw,      Poland      (MChD in RESPONS)
  Paal Dahle,                  University of Oslo,        Norway      (Parallelization)
  Erik K. Dalskov,             UNI-C,                     Denmark     (SOPPA)
  Thomas Enevoldsen,           Univ. of Southern Denmark, Denmark     (SOPPA)
  Janus J. Eriksen,            Aarhus University,         Denmark     (Polarizable embedding, TDA)
  Rasmus Faber,                Technical Univ. of Denmark,Denmark     (Vib.avg. NMR w. SOPPA, parallel AO-SOPPA, CVS-CC and EOMCC)
  Tobias Fahleson,             KTH Stockholm,             Sweden      (Damped cubic response)
  Berta Fernandez,             U. of Santiago de CompostelSpain       (Doublet spin, ESR in RESPONS)
  Lara Ferrighi,               Aarhus University,         Denmark     (PCM Cubic response)
  Heike Fliegl,                University of Oslo,        Norway      (CCSD(R12))
  Luca Frediani,               UiT The Arctic U. of NorwayNorway      (PCM)
  Emmanuel Fromager,           Univ. Strasbourg,          France      (MC-srDFT)
  Bin Gao,                     UiT The Arctic U. of NorwayNorway      (Gen1Int library)
  Andre S. P. Gomes,           CNRS/Universite de Lille,  France      (Frozen density embedding)
  Christof Haettig,            Ruhr-University Bochum,    Germany     (CC module)
  Kasper Hald,                 Aarhus University,         Denmark     (CC module)
  Asger Halkier,               Aarhus University,         Denmark     (CC module)
  Frederik Beyer Hansen,       University of Copenhagen,  Denmark     (Parallel AO-SOPPA)
  Erik D. Hedegaard,           Univ. of Southern Denmark, Denmark     (Polarizable embedding, QM/MM, and MC-srDFT)
  Hanne Heiberg,               University of Oslo,        Norway      (Geometry analysis, selected one-electron integrals)
  Trygve Helgaker,             University of Oslo,        Norway      (DALTON; ABACUS, ERI, DFT modules, London, and much more)
  Alf Christian Hennum,        University of Oslo,        Norway      (Parity violation)
  Hinne Hettema,               University of Auckland,    New Zealand (Quadratic response in RESPONS; SIRIUS supersymmetry)
  Andreas E. Hillers-Bendtsen, University of Copenhagen,  Denmark     (MP3)
  Eirik Hjertenaes,            NTNU,                      Norway      (Cholesky decomposition)
  Nicolai Machholdt Hoeyer,    Aarhus University,         Denmark     (MP3)
  Pi A. B. Haase,              University of Copenhagen,  Denmark     (Triplet AO-SOPPA)
  Maria Francesca Iozzi,       University of Oslo,        Norway      (RPA)
  Christoph Jacob              TU Braunschweig            Germany     (Frozen density embedding)
  Brano Jansik                 Technical Univ. of Ostrava Czech Rep.  (DFT cubic response)
  Hans Joergen Aa. Jensen,     Univ. of Southern Denmark, Denmark     (DALTON; SIRIUS, RESPONS, ABACUS, MC-srDFT, and much more)
  Dan Jonsson,                 UiT The Arctic U. of NorwayNorway      (Cubic response in RESPONS module)
  Poul Joergensen,             Aarhus University,         Denmark     (RESPONS, ABACUS, and CC modules)
  Maciej Kaminski,             University of Warsaw,      Poland      (CPPh in RESPONS)
  Joanna Kauczor,              Linkoeping University,     Sweden      (Complex polarization propagator (CPP) module)
  Sheela Kirpekar,             Univ. of Southern Denmark, Denmark     (Mass-velocity & Darwin integrals)
  Frederik Oersted Kjeldal,    Technical Univ. of Denmark,Denmark     (MP3)
  Erik Kjellgren,              Univ. of Southern Denmark, Denmark     (MC-srDFT)
  Wim Klopper,                 KIT Karlsruhe,             Germany     (R12 code in CC, SIRIUS, and ABACUS modules)
  Stefan Knecht,               ETH Zurich,                Switzerland (Parallel CI and MCSCF, MC-srDFT)
  Rika Kobayashi,              Australian National Univ., Australia   (DIIS in CC, London in MCSCF)
  Henrik Koch,                 NTNU,                      Norway      (CC module, Cholesky decomposition)
  Jacob Kongsted,              Univ. of Southern Denmark, Denmark     (Polarizable embedding, polarizable density embedding, QM/MM)
  Andrea Ligabue,              University of Modena,      Italy       (CTOCD, AOSOPPA)
  Nanna H. List                Univ. of Southern Denmark, Denmark     (Polarizable embedding)
  Ola B. Lutnaes,              University of Oslo,        Norway      (DFT Hessian)
  Juan I. Melo,                University of Buenos Aires,Argentina   (LRESC, Relativistic Effects on NMR Shieldings)
  Kurt V. Mikkelsen,           University of Copenhagen,  Denmark     (MC-SCRF, QM/MM, and MP3)
  Rolf H. Myhre,               NTNU,                      Norway      (Subsystems and CC3)
  Christian Neiss,             Univ. Erlangen-Nuernberg,  Germany     (CCSD(R12))
  Christian B. Nielsen,        University of Copenhagen,  Denmark     (QM/MM)
  Patrick Norman,              KTH Stockholm,             Sweden      (Cubic response and complex frequency response in RESPONS)
  Jeppe Olsen,                 Aarhus University,         Denmark     (SIRIUS CI/density modules)
  Jogvan Magnus H. Olsen,      Aarhus University,         Denmark     (Polarizable embedding and polarizable density embedding)
  Anders Osted,                Copenhagen University,     Denmark     (QM/MM)
  Martin J. Packer,            University of Sheffield,   UK          (SOPPA)
  Filip Pawlowski,             Kazimierz Wielki UniversityPoland      (CC3)
  Morten N. Pedersen,          Univ. of Southern Denmark, Denmark     (Polarizable embedding)
  Thomas B. Pedersen,          University of Oslo,        Norway      (Cholesky decomposition)
  Patricio F. Provasi,         University of Northeastern,Argentina   (Analysis of coupling constants in localized orbitals)
  Peter Reinholdt,             Univ. of Southern Denmark, Denmark     (Polarizable embedding and polarizable density embedding)
  Zilvinas Rinkevicius,        KTH Stockholm,             Sweden      (open-shell DFT, ESR)
  Elias Rudberg,               KTH Stockholm,             Sweden      (DFT grid and basis info)
  Torgeir A. Ruden,            University of Oslo,        Norway      (Numerical derivatives in ABACUS)
  Kenneth Ruud,                UiT The Arctic U. of NorwayNorway      (DALTON; ABACUS magnetic properties and much more)
  Pawel Salek,                 KTH Stockholm,             Sweden      (DALTON; DFT code)
  Claire C. M. Samson          University of Karlsruhe    Germany     (Boys localization, r12 integrals in ERI)
  Alfredo Sanchez de Meras,    University of Valencia,    Spain       (CC module, Cholesky decomposition)
  Trond Saue,                  Paul Sabatier University,  France      (direct Fock matrix construction)
  Stephan P. A. Sauer,         University of Copenhagen,  Denmark     (SOPPA(CCSD), SOPPA prop., AOSOPPA, vibrational g-factors)
  Bernd Schimmelpfennig,       Forschungszentrum KarlsruheGermany     (AMFI module)
  Anna K. Schnack-Petersen,    University of Copenhagen,  Denmark     (RPA(D) and HRPA(D) properties in AOSOPPA)
  Kristian Sneskov,            Aarhus University,         Denmark     (Polarizable embedding, QM/MM)
  Arnfinn H. Steindal,         UiT The Arctic U. of NorwayNorway      (parallel QM/MM, polarizable embedding)
  Casper Steinmann,            Aalborg University,        Denmark     (QFIT, polarizable embedding)
  K. O. Sylvester-Hvid,        University of Copenhagen,  Denmark     (MC-SCRF)
  Peter R. Taylor,             VLSCI/Univ. of Melbourne,  Australia   (Symmetry handling ABACUS, integral transformation)
  Andrew M. Teale,             University of Nottingham,  England     (DFT-AC, DFT-D)
  David P. Tew,                University of Bristol,     England     (CCSD(R12))
  Julien Toulouse,             Sorbonne Univ.,            France      (MC-srDFT)
  Olav Vahtras,                KTH Stockholm,             Sweden      (Triplet response, spin-orbit, ESR, TDDFT, open-shell DFT)
  Lucas Visscher,              Vrije Universiteit AmsterdaNetherlands (Frozen density embedding)
  David J. Wilson,             La Trobe University,       Australia   (DFT Hessian and DFT magnetizabilities)
  Luna Zamok,                  University of Copenhagen,  Denmark     (Block Lanczos RPA solver in SOPPA module)
  Hans Agren,                  KTH Stockholm,             Sweden      (SIRIUS module, RESPONS, MC-SCRF solvation)
 --------------------------------------------------------------------------------

     Date and time (Linux)  : Thu May 19 15:08:22 2022
     Host name              : fe-ac-02.escience.sdu.dk                

 * Work memory size             :    64000000 =  488.28 megabytes.

 * Directories for basis set searches:
   1) /gpfs/ess1/work/sdujk/hjj/progs/gitDalton/build_master_mpi/test/geoopt_numgrd
   2) /gpfs/ess1/work/sdujk/hjj/progs/gitDalton/build_master_mpi/basis


Compilation information
-----------------------

 Who compiled             | hjj
 Host                     | fe-ac-02.escience.sdu.dk
 System                   | Linux-5.4.119.el7
 CMake generator          | Unix Makefiles
 Processor                | x86_64
 64-bit integers          | OFF
 MPI                      | ON
 Fortran compiler         | /opt/sys/easybuild/software/OpenMPI/4.0.5-GCC-10.2
                          | .0/bin/mpif90
 Fortran compiler version | GNU Fortran (GCC) 11.2.0
 C compiler               | /opt/sys/easybuild/software/OpenMPI/4.0.5-GCC-10.2
                          | .0/bin/mpicc
 C compiler version       | gcc (GCC) 11.2.0
 C++ compiler             | /opt/sys/easybuild/software/OpenMPI/4.0.5-GCC-10.2
                          | .0/bin/mpicxx
 C++ compiler version     | unknown
 BLAS                     | /opt/sys/easybuild/software/OpenBLAS/0.3.12-GCC-10
                          | .2.0/lib/libopenblas.so
 Static linking           | OFF
 Last Git revision        | 8a66ff0269f6c8074e05fbcc4bff3a25fc5081a1
 Git branch               | master
 Configuration time       | 2022-05-19 14:57:49.561613

 * Sequential calculation.


   Content of the .dal input file
 ----------------------------------

**DALTON INPUT
.OPTIMIZE
**WAVE FUNCTIONS
.HF
.MP2
**END OF DALTON INPUT


   Content of the .mol file
 ----------------------------

BASIS
6-31G
MP2 geometry optimization using numerical gradients

Generators=2 X     Y Atomtypes=2
Charge=1.0 Atoms=1
H1        0.00000000    -1.44761450     1.07875057
Charge=8.0 Atoms=1
O         0.00000000     0.00000000    -0.13594222
H2        0.00000000     1.44761450     1.07875057


       *******************************************************************
       *********** Output from DALTON general input processing ***********
       *******************************************************************

 --------------------------------------------------------------------------------
   Overall default print level:    0
   Print level for DALTON.STAT:    1

    "Old" integral transformation used (limited to max 255 basis functions)
 --------------------------------------------------------------------------------


 Chosen parameters for *OPTIMI :
 -------------------------------

 Default 1st order method will be used:   BFGS update.
 Optimization will be performed in redundant internal coordinates (by default).
 Model Hessian will be used as initial Hessian.
 The model Hessian parameters of Roland Lindh will be used.


 Trust region method will be used to control step (default).

 Convergence threshold for gradient set to :      1.00D-04
 Convergence threshold for energy set to   :      1.00D-06
 Convergence threshold for step set to     :      1.00D-04
 Number of convergence criteria set to     :   2


              >>>>>>>>>>>>>>>>>>>>>>>>>>>>>>>>>>>>>>>>>>>>>>>>>>>>>
              >>>>>>>>>> 1st Order Geometry Optimization >>>>>>>>>>
              >>>>>>>>>>>>>>>>>>>>>>>>>>>>>>>>>>>>>>>>>>>>>>>>>>>>>


 Reading .mol file to determine number of atoms for parallel runs.


   ****************************************************************************
   *************** Output of molecule and basis set information ***************
   ****************************************************************************


    The two title cards from your ".mol" input:
    ------------------------------------------------------------------------
 1: MP2 geometry optimization using numerical gradients                     
 2:                                                                         
    ------------------------------------------------------------------------

  Atomic type no.    1
  --------------------
  Nuclear charge:   1.00000
  Number of symmetry independent centers:    1
  Number of basis sets to read;    2
  Basis set file used for this atomic type with Z =   1 :
     "/gpfs/ess1/work/sdujk/hjj/progs/gitDalton/build_master_mpi/basis/6-31G"

  Info about the basis set file: your basis has no documentation.
  Basis set: 6-31G                                                                           

  Atomic type no.    2
  --------------------
  Nuclear charge:   8.00000
  Number of symmetry independent centers:    1
  Number of basis sets to read;    2
  Basis set file used for this atomic type with Z =   8 :
     "/gpfs/ess1/work/sdujk/hjj/progs/gitDalton/build_master_mpi/basis/6-31G"

  Info about the basis set file: your basis has no documentation.
  Basis set: 6-31G                                                                           


                         SYMGRP: Point group information
                         -------------------------------

@    Point group: C2v

@  * The irrep name for each symmetry:    1: A1     2: B1     3: B2     4: A2 

   * The point group was generated by:

      Reflection in the yz-plane
      Reflection in the xz-plane

   * Group multiplication table

        |  E   C2z  Oxz  Oyz
   -----+--------------------
     E  |  E   C2z  Oxz  Oyz
    C2z | C2z   E   Oyz  Oxz
    Oxz | Oxz  Oyz   E   C2z
    Oyz | Oyz  Oxz  C2z   E 

   * Character table

        |  E   C2z  Oxz  Oyz
   -----+--------------------
    A1  |   1    1    1    1
    B1  |   1   -1    1   -1
    B2  |   1   -1   -1    1
    A2  |   1    1   -1   -1

   * Direct product table

        | A1   B1   B2   A2 
   -----+--------------------
    A1  | A1   B1   B2   A2 
    B1  | B1   A1   A2   B2 
    B2  | B2   A2   A1   B1 
    A2  | A2   B2   B1   A1 


                                 Isotopic Masses
                                 ---------------

                           H1  _1      1.007825
                           H1  _2      1.007825
                           O          15.994915

                       Total mass:    18.010565 amu
                       Natural abundance:  99.730 %

 Center-of-mass coordinates (a.u.):    0.000000    0.000000   -0.000000
 Center-of-mass coordinates (Angs):    0.000000    0.000000   -0.000000


  Atoms and basis sets
  --------------------

  Number of atom types :    2
  Total number of atoms:    3

  Basis set used is "6-31G" from the basis set library.

  label    atoms   charge   prim   cont     basis
  ----------------------------------------------------------------------
  H1          2    1.0000     4     2      [4s|2s]                                            
  O           1    8.0000    22     9      [10s4p|3s2p]                                       
  ----------------------------------------------------------------------
  total:      3   10.0000    30    13
  ----------------------------------------------------------------------

  Threshold for neglecting AO integrals:  1.00D-12


  Cartesian Coordinates (a.u.)
  ----------------------------

  Total number of coordinates:    9
  H1  / 1 :     1  x   0.0000000000    2  y  -1.4476145000    3  z   1.0787505700
  H1  / 2 :     4  x   0.0000000000    5  y   1.4476145000    6  z   1.0787505700
  O       :     7  x   0.0000000000    8  y   0.0000000000    9  z  -0.1359422200


  Symmetry Coordinates
  --------------------

  Number of coordinates in each symmetry:     3    2    3    1

  Symmetry  A1  ( 1)

    1   H1    y    [  2  -    5 ]/2
    2   H1    z    [  3  +    6 ]/2
    3   O     z    9

  Symmetry  B1  ( 2)

    4   H1    x    [  1  +    4 ]/2
    5   O     x    7

  Symmetry  B2  ( 3)

    6   H1    y    [  2  +    5 ]/2
    7   H1    z    [  3  -    6 ]/2
    8   O     y    8

  Symmetry  A2  ( 4)

    9   H1    x    [  1  -    4 ]/2


   Interatomic separations (in Angstrom):
   --------------------------------------

            H1  _1      H1  _2      O     
            ------      ------      ------
 H1  _1:    0.000000
 H1  _2:    1.532089    0.000000
 O     :    1.000000    1.000000    0.000000


  Max    interatomic separation is    1.5321 Angstrom (    2.8952 Bohr)
  between atoms    2 and    1, "H1  _2" and "H1  _1".

  Min HX interatomic separation is    1.0000 Angstrom (    1.8897 Bohr)


  Bond distances (Angstrom):
  --------------------------

                  atom 1     atom 2       distance
                  ------     ------       --------
  bond distance:  O          H1  _1       1.000000
  bond distance:  O          H1  _2       1.000000


  Bond angles (degrees):
  ----------------------

                  atom 1     atom 2     atom 3         angle
                  ------     ------     ------         -----
  bond angle:     H1  _1     O          H1  _2       100.000




 Principal moments of inertia (u*A**2) and principal axes
 --------------------------------------------------------

   IA       0.739614          0.000000    1.000000    0.000000
   IB       1.182832          0.000000    0.000000    1.000000
   IC       1.922446          1.000000    0.000000    0.000000


 Rotational constants
 --------------------

@    The molecule is planar.

               A                   B                   C

         683301.3858         427261.6951         262883.3187 MHz
           22.792481           14.251916            8.768844 cm-1


@  Nuclear repulsion energy :    8.812229431637 Hartree


  Symmetry Orbitals
  -----------------

  Number of orbitals in each symmetry:           7    2    4    0


  Symmetry  A1 ( 1)

    1     H1       1s         1 +    2
    2     H1       1s         3 +    4
    3     O        1s         5
    4     O        1s         6
    5     O        1s         7
    6     O        2pz       10
    7     O        2pz       13


  Symmetry  B1 ( 2)

    8     O        2px        8
    9     O        2px       11


  Symmetry  B2 ( 3)

   10     H1       1s         1 -    2
   11     H1       1s         3 -    4
   12     O        2py        9
   13     O        2py       12


  No orbitals in symmetry  A2 ( 4)

  Symmetries of electric field:  B1 (2)  B2 (3)  A1 (1)

  Symmetries of magnetic field:  B2 (3)  B1 (2)  A2 (4)


                     .---------------------------------------.
                     | Starting in Integral Section (HERMIT) |
                     `---------------------------------------'



 ***************************************************************************************
 ****************** Output from **INTEGRALS input processing (HERMIT) ******************
 ***************************************************************************************


 - Using defaults, no **INTEGRALS input found

 Default print level:        1

 Calculation of one- and two-electron Hamiltonian integrals.

 Center of mass  (bohr):      0.000000000000      0.000000000000     -0.000000037056
 Operator center (bohr):      0.000000000000      0.000000000000      0.000000000000
 Gauge origin    (bohr):      0.000000000000      0.000000000000      0.000000000000
 Dipole origin   (bohr):      0.000000000000      0.000000000000      0.000000000000

Calculation of 2-electron integrals are postponed until they are needed.


     ************************************************************************
     ************************** Output from HERINT **************************
     ************************************************************************



                      Nuclear contribution to dipole moments
                      --------------------------------------

                 au               Debye          C m (/(10**-30)

      z      1.06996338         2.71957547         9.07152731


  Total CPU  time used in HERMIT:   0.01 seconds
  Total wall time used in HERMIT:   0.01 seconds


                        .----------------------------------.
                        | End of Integral Section (HERMIT) |
                        `----------------------------------'



                   .--------------------------------------------.
                   | Starting in Wave Function Section (SIRIUS) |
                   `--------------------------------------------'


 *** Output from Huckel module :

     Using EWMO model:          F
     Using EHT  model:          T
     Number of Huckel orbitals each symmetry:    4    1    2    0

 Huckel EHT eigenvalues for symmetry :  1
          -20.701779      -1.488180      -0.677490      -0.304815

 Huckel EHT eigenvalues for symmetry :  2
           -0.616200

 Huckel EHT eigenvalues for symmetry :  3
           -0.723365      -0.268073

 **********************************************************************
 *SIRIUS* a direct, restricted step, second order MCSCF program       *
 **********************************************************************

 
     Date and time (Linux)  : Thu May 19 15:08:22 2022
     Host name              : fe-ac-02.escience.sdu.dk                

 Title lines from ".mol" input file:
     MP2 geometry optimization using numerical gradients                     
                                                                             

 Print level on unit LUPRI =   2 is   0
 Print level on unit LUW4  =   2 is   5

@    MP2, closed-shell Moeller-Plesset second-order calculation.

@    This is a combination run starting with
@              a restricted, closed shell Hartree-Fock calculation


 Initial molecular orbitals are obtained according to
 ".MOSTART EHT   " input option

     Wave function specification
     ============================
@    Wave function type        --- MP2 ---
@    Number of closed shell electrons          10
@    Number of electrons in active shells       0
@    Total charge of the molecule               0

@    Spin multiplicity and 2 M_S                1         0
@    Total number of symmetries                 4 (point group: C2v)
@    Reference state symmetry                   1 (irrep name : A1 )

     Orbital specifications
     ======================
@    Abelian symmetry species          All |    1    2    3    4
@                                          |  A1   B1   B2   A2 
                                       --- |  ---  ---  ---  ---
@    Total number of orbitals           13 |    7    2    4    0
@    Number of basis functions          13 |    7    2    4    0

      ** Automatic occupation of RHF orbitals **

      -- Initial occupation of symmetries is determined from extended Huckel guess.           
      -- Initial occupation of symmetries is :
@    Occupied SCF orbitals               5 |    3    1    1    0

     Maximum number of Fock   iterations      0
     Maximum number of DIIS   iterations     60
     Maximum number of QC-SCF iterations     60
     Threshold for SCF convergence     1.00D-06


 ***********************************************
 ***** DIIS acceleration of SCF iterations *****
 ***********************************************

 C1-DIIS algorithm; max error vectors =    8

 Automatic occupation of symmetries with  10 electrons.

 Iter     Total energy    Error norm  Delta(E)    SCF occupation
 -----------------------------------------------------------------------------

Calculating AOSUPINT

---> (Re)generating AOTWOINT


     ************************************************************************
     ************************** Output from HERINT **************************
     ************************************************************************


 Threshold for neglecting two-electron integrals:  1.00D-12
 HERMIT - Number of two-electron integrals written:        1270 ( 30.3% )
 HERMIT - Megabytes written:                              0.021

     (Precalculated AO two-electron integrals are transformed to P-supermatrix elements.
      Threshold for discarding integrals :  1.00D-12 )
@  1  -75.8063645257       1.92D+00  -7.58D+01     3   1   1   0
      Virial theorem: -V/T =      2.000290
@    MULPOP   H1  _1  0.24; H1  _2  0.24; O      -0.49; 
   1  Level shift: doubly occupied orbital energies shifted by -2.00D-01
 -----------------------------------------------------------------------------
@  2  -75.9647802705       3.76D-01  -1.58D-01     3   1   1   0
      Virial theorem: -V/T =      2.003026
@    MULPOP   H1  _1  0.35; H1  _2  0.35; O      -0.70; 
   2  Level shift: doubly occupied orbital energies shifted by -5.00D-02
 -----------------------------------------------------------------------------
@  3  -75.9778241839       7.72D-02  -1.30D-02     3   1   1   0
      Virial theorem: -V/T =      2.002445
@    MULPOP   H1  _1  0.38; H1  _2  0.38; O      -0.76; 
   3  Level shift: doubly occupied orbital energies shifted by -1.25D-02
 -----------------------------------------------------------------------------
@  4  -75.9783224189       1.89D-02  -4.98D-04     3   1   1   0
      Virial theorem: -V/T =      2.001417
@    MULPOP   H1  _1  0.39; H1  _2  0.39; O      -0.78; 
 -----------------------------------------------------------------------------
@  5  -75.9783398993       3.96D-03  -1.75D-05     3   1   1   0
      Virial theorem: -V/T =      2.001823
@    MULPOP   H1  _1  0.39; H1  _2  0.39; O      -0.78; 
 -----------------------------------------------------------------------------
@  6  -75.9783409981       5.07D-04  -1.10D-06     3   1   1   0
      Virial theorem: -V/T =      2.001774
@    MULPOP   H1  _1  0.39; H1  _2  0.39; O      -0.78; 
 -----------------------------------------------------------------------------
@  7  -75.9783410300       9.08D-05  -3.19D-08     3   1   1   0
      Virial theorem: -V/T =      2.001779
@    MULPOP   H1  _1  0.39; H1  _2  0.39; O      -0.78; 
 -----------------------------------------------------------------------------
@  8  -75.9783410313       1.50D-05  -1.28D-09     3   1   1   0
      Virial theorem: -V/T =      2.001780
@    MULPOP   H1  _1  0.39; H1  _2  0.39; O      -0.78; 
 -----------------------------------------------------------------------------
@  9  -75.9783410313       3.01D-06  -4.64D-11     3   1   1   0
      Virial theorem: -V/T =      2.001780
@    MULPOP   H1  _1  0.39; H1  _2  0.39; O      -0.78; 
 -----------------------------------------------------------------------------
@ 10  -75.9783410313       4.24D-07  -1.88D-12     3   1   1   0

@ *** DIIS converged in  10 iterations !
@     Converged SCF energy, gradient:    -75.978341031327    4.24D-07
    - total time used in SIRFCK :              0.00 seconds

 --- Writing SIRIFC interface file

--------------------------------------------------------------------------------


     .--------------------------------------------------.
     | HF-SCF KT IPs [a.u. & eV] from Koopmans' theorem |
     `--------------------------------------------------'


     HF-SCF KT symmetry 1 ( A1 ) in point group C2v -- 3 principal poles with pole strength 1

   ============  ============  ============
      20.572363      1.339537      0.562986
     559.802464     36.450657     15.319636
   ============  ============  ============

     HF-SCF KT symmetry 2 ( B1 ) in point group C2v -- 1 principal poles with pole strength 1

   ============
       0.501662
      13.650921
   ============

     HF-SCF KT symmetry 3 ( B2 ) in point group C2v -- 1 principal poles with pole strength 1

   ============
       0.679500
      18.490143
   ============

@ Summary of HF-SCF KT ionization potentials [eV]:

@ Symmetry 1 (A1 ) :   559.802      36.451      15.320

@ Symmetry 2 (B1 ) :    13.651

@ Symmetry 3 (B2 ) :    18.490

@ Symmetry 4 (A2 ) :  No IPs in this symmetry

  === End of HF-SCF KT output ===
--------------------------------------------------------------------------------


 CPU and wall time for SCF :       0.013       0.015


 ----- Output from SIRIUS MP2 module -----

 Reference: H.J.Aa.Jensen, P.Jørgensen, H.Ågren, and J.Olsen,
            J. Chem. Phys. 88, 3834 (1988); 89, 5354 (1988)

 Checking that the closed shell orbitals are canonical Hartree-Fock orbitals

    Number of electrons  :   10
    Closed shell orbitals:    3    1    1    0

 Generating Fock matrix

 Hartree-Fock electronic energy:         -84.790570462964
 Hartree-Fock total      energy:         -75.978341031327

 Hartree-Fock orbital energies, symmetry 1 ( A1 ),    3 occupied SCF orbitals

       -20.57236265    -1.33953702    -0.56298629     0.19252707     1.14546520
         1.22864508     1.70992048

 Hartree-Fock orbital energies, symmetry 2 ( B1 ),    1 occupied SCF orbitals

        -0.50166214     1.16255456

 Hartree-Fock orbital energies, symmetry 3 ( B2 ),    1 occupied SCF orbitals

        -0.67950026     0.28619025     1.01962739     1.36326206

    E(LUMO) :     0.19252707   (in symmetry 1)
  - E(HOMO) :    -0.50166214   (in symmetry 2)
  --------------------------
    gap     :     0.69418921

 2-el. integral transformation level 5: Total CPU and WALL times (sec)       0.002       0.002

 MP2 move   0.081256 electrons to unoccupied HF orbitals


@   Hartree-Fock total energy   :           -75.9783410313
@   + MP2 contribution          :            -0.1331369167
@   = MP2 second order energy   :           -76.1114779481

 MP2INFO for SOPPA (RHF orbitals) written to SIRIFC

 Natural orbital occupation numbers, symmetry 1 (irrep A1 )
 Sum =     6.00016356; RHF =     6.00000000; Difference =     0.00016356

         1.99995686     1.98999030     1.97509620     0.02319091     0.01004780
         0.00166269     0.00021880

 Natural orbital occupation numbers, symmetry 2 (irrep B1 )
 Sum =     1.99931776; RHF =     2.00000000; Difference =    -0.00068224

         1.98156588     0.01775188

 Natural orbital occupation numbers, symmetry 3 (irrep B2 )
 Sum =     2.00051868; RHF =     2.00000000; Difference =     0.00051868

         1.97265094     0.02514661     0.00240855     0.00031258

 Time used for MP2 natural orbitals :       0.003 CPU seconds,       0.006 wall seconds.

 CPU and wall time for MP2 :       0.003       0.007


                       .-----------------------------------.
                       | --- Final results from SIRIUS --- |
                       `-----------------------------------'


@    Spin multiplicity:           1
@    Spatial symmetry:            1 ( irrep  A1  in C2v )
@    Total charge of molecule:    0

@    Final HF energy:             -75.978341031327                 
@    Nuclear repulsion:             8.812229431637
@    Electronic energy:           -84.790570462964

@    Final gradient norm:           0.000000423678

 
     Date and time (Linux)  : Thu May 19 15:08:22 2022
     Host name              : fe-ac-02.escience.sdu.dk                

File label for MO orbitals:  19May22   MP2SAVE 

 (Only coefficients > 0.0100 are printed.)

 Molecular orbitals for symmetry species 1  (A1 )
 ------------------------------------------------

    Orbital         1        2        3        4        5        6        7
   1 H1  :1s     0.0016   0.0705   0.1895   0.3084  -0.2068   1.0193   0.1313
   2 H1  :1s     0.0019  -0.0391   0.0975   0.2207   0.1274  -0.0769  -1.2193
   3 O   :1s     0.9936  -0.2355  -0.0048   0.0606  -0.1143   0.0132  -0.0130
   4 O   :1s     0.0268   0.5017  -0.0046  -0.1971   1.3445   0.7759  -0.7680
   5 O   :1s    -0.0035   0.5725  -0.1408  -0.3439  -1.2724  -1.4720   2.0760
   6 O   :2pz    0.0035  -0.0838   0.5437  -0.9070  -0.2864   0.1925  -0.3667
   7 O   :2pz   -0.0012  -0.0777   0.3809   0.4004   0.5180  -1.0098   1.0233

 Molecular orbitals for symmetry species 2  (B1 )
 ------------------------------------------------

    Orbital         1        2
   1 O   :2px    0.6386  -0.9635
   2 O   :2px    0.5133   1.0357

 Molecular orbitals for symmetry species 3  (B2 )
 ------------------------------------------------

    Orbital         1        2        3        4
   1 H1  :1s    -0.2553   0.3574   0.8429  -0.2943
   2 H1  :1s    -0.1529   0.3112  -0.2433   1.6230
   3 O   :2py    0.5070   0.9016  -0.3409  -0.5012
   4 O   :2py    0.2669  -0.1263   1.1515   1.3907

  Total CPU  time used in SIRIUS :   0.02 seconds
  Total wall time used in SIRIUS :   0.03 seconds

 
     Date and time (Linux)  : Thu May 19 15:08:22 2022
     Host name              : fe-ac-02.escience.sdu.dk                


                     .---------------------------------------.
                     | End of Wave Function Section (SIRIUS) |
                     `---------------------------------------'


     Order of analytical energy-derivatives available:   0
     Calculating gradient numerically.

 INFO: Due to limitations in the accuracy of the numerical gradients
 INFO: default thresholds for convergence of geometry optimization have been reset.

 New thresholds:

                    Gradient norm   0.00010000
                    Step norm       0.00010000
                    Energy change   0.00010000


          **************************************************************
          ****************** @ Numerical derivatives. ******************
          **************************************************************



 @ Derivatives calculated:
 -------------------------

@          Derivatives calculated to order  1
@          Analytical derivatives from energies to   0 order.
@          1. numerical derivatives from  0. order analytical derivatives


                       Making symmetry adapted coor in C2v
                       -----------------------------------



                     Group matrix elements for the group C2v
                     ---------------------------------------

 1. irep:
  1.00  1.00  1.00  1.00
 2. irep:
  1.00 -1.00  1.00 -1.00
 3. irep:
  1.00  1.00 -1.00 -1.00
 4. irep:
  1.00 -1.00 -1.00  1.00
                                      


 Characters for the group C2v
 ----------------------------

 1. irep:
  1.0  1.0  1.0  1.0
 2. irep:
  1.0 -1.0  1.0 -1.0
 3. irep:
  1.0  1.0 -1.0 -1.0
 4. irep:
  1.0 -1.0 -1.0  1.0
                                      


                               Symmetry coordinates
                               --------------------

Symmetry   1       1       1       2       2       3       4       4       4
        0.0000  0.0000  0.0000  0.7071  0.0000  0.7071  0.0000  0.0000  0.0000
        0.7071  0.0000  0.0000 -0.0000  0.0000 -0.0000  0.7071  0.0000  0.0000
        0.0000  0.7071  0.0000  0.0000  0.0000  0.0000  0.0000  0.7071  0.0000
        0.0000  0.0000  0.0000  0.7071  0.0000 -0.7071 -0.0000  0.0000  0.0000
       -0.7071  0.0000  0.0000  0.0000  0.0000 -0.0000  0.7071  0.0000  0.0000
        0.0000  0.7071  0.0000  0.0000  0.0000  0.0000  0.0000 -0.7071  0.0000
        0.0000  0.0000  0.0000  0.0000  1.0000  0.0000  0.0000  0.0000  0.0000
        0.0000  0.0000  0.0000  0.0000  0.0000  0.0000  0.0000  0.0000  1.0000
        0.0000  0.0000  1.0000  0.0000  0.0000  0.0000  0.0000  0.0000  0.0000





 @ Next numerical derivative component
 -------------------------------------

@        1


 **************************************************************************************
 ****************** Output of molecule and basis set info suppressed ******************
 **************************************************************************************



                      SYMADD: Requested addition of symmetry
                      --------------------------------------

 Symmetry test threshold:  5.00E-06

 Symmetry class found: C(2v)          

 The following symmetry elements were found:   X  Y     


                     .---------------------------------------.
                     | Starting in Integral Section (HERMIT) |
                     `---------------------------------------'



                      Nuclear contribution to dipole moments
                      --------------------------------------

                 au               Debye          C m (/(10**-30)

      z      1.06996375         2.71957641         9.07153045


  Total CPU  time used in HERMIT:   0.01 seconds
  Total wall time used in HERMIT:   0.02 seconds


                        .----------------------------------.
                        | End of Integral Section (HERMIT) |
                        `----------------------------------'



                   .--------------------------------------------.
                   | Starting in Wave Function Section (SIRIUS) |
                   `--------------------------------------------'

* Read MO coefficients from SIRIUS.RST with label "NEWORB  " and header info: 19May22  MP2SAVE 

 **********************************************************************
 *SIRIUS* a direct, restricted step, second order MCSCF program       *
 **********************************************************************

 (Wave function specification suppressed here, see output above for initial geometry.)


 ***********************************************
 ***** DIIS acceleration of SCF iterations *****
 ***********************************************

 C1-DIIS algorithm; max error vectors =    8

 Iter      Total energy        Error norm    Delta(E)  DIIS dim.
 -----------------------------------------------------------------------------

Calculating AOSUPINT

---> (Re)generating AOTWOINT

 Threshold for neglecting two-electron integrals:  1.00D-12
 HERMIT - Number of two-electron integrals written:        1270 ( 30.3% )
 HERMIT - Megabytes written:                              0.021

     (Precalculated AO two-electron integrals are transformed to P-supermatrix elements.
      Threshold for discarding integrals :  1.00D-12 )
@  1    -74.4630731198        1.98789D+00    1.52D+00    1
      Virial theorem: -V/T =      1.934243
@    MULPOP   H1  _1  0.59; H1  _2  0.59; O      -1.18; 
 -----------------------------------------------------------------------------
@  2    -75.8914604655        1.08308D+00   -1.43D+00    2
      Virial theorem: -V/T =      2.018912
@    MULPOP   H1  _1  0.50; H1  _2  0.50; O      -1.00; 
 -----------------------------------------------------------------------------
@  3    -75.9621132537        3.46580D-01   -7.07D-02    3
      Virial theorem: -V/T =      2.000672
@    MULPOP   H1  _1  0.47; H1  _2  0.47; O      -0.95; 
 -----------------------------------------------------------------------------
@  4    -75.9770325723        1.02595D-01   -1.49D-02    4
      Virial theorem: -V/T =      2.002625
@    MULPOP   H1  _1  0.40; H1  _2  0.40; O      -0.79; 
 -----------------------------------------------------------------------------
@  5    -75.9784148988        2.97997D-02   -1.38D-03    5
      Virial theorem: -V/T =      2.001492
@    MULPOP   H1  _1  0.39; H1  _2  0.39; O      -0.79; 
 -----------------------------------------------------------------------------
@  6    -75.9785932394        4.14925D-03   -1.78D-04    6
      Virial theorem: -V/T =      2.001598
@    MULPOP   H1  _1  0.39; H1  _2  0.39; O      -0.78; 
 -----------------------------------------------------------------------------
@  7    -75.9785964490        6.90375D-04   -3.21D-06    7
      Virial theorem: -V/T =      2.001636
@    MULPOP   H1  _1  0.39; H1  _2  0.39; O      -0.78; 
 -----------------------------------------------------------------------------
@  8    -75.9785965252        6.40175D-05   -7.62D-08    8
      Virial theorem: -V/T =      2.001643
@    MULPOP   H1  _1  0.39; H1  _2  0.39; O      -0.78; 
 -----------------------------------------------------------------------------
@  9    -75.9785965256        6.47741D-06   -3.85D-10    8
      Virial theorem: -V/T =      2.001643
@    MULPOP   H1  _1  0.39; H1  _2  0.39; O      -0.78; 
 -----------------------------------------------------------------------------
@ 10    -75.9785965256        8.53938D-07   -4.89D-12    8

@ *** DIIS converged in  10 iterations !
@     Converged SCF energy, gradient:    -75.978596525597    8.54D-07
    - total time used in SIRFCK :              0.00 seconds

 --- Writing SIRIFC interface file

--------------------------------------------------------------------------------


     .--------------------------------------------------.
     | HF-SCF KT IPs [a.u. & eV] from Koopmans' theorem |
     `--------------------------------------------------'


     HF-SCF KT symmetry 1 ( A1 ) in point group C2v -- 3 principal poles with pole strength 1

   ============  ============  ============
      20.571989      1.341233      0.563958
     559.792285     36.496799     15.346083
   ============  ============  ============

     HF-SCF KT symmetry 2 ( B1 ) in point group C2v -- 1 principal poles with pole strength 1

   ============
       0.501915
      13.657812
   ============

     HF-SCF KT symmetry 3 ( B2 ) in point group C2v -- 1 principal poles with pole strength 1

   ============
       0.680486
      18.516975
   ============

@ Summary of HF-SCF KT ionization potentials [eV]:

@ Symmetry 1 (A1 ) :   559.792      36.497      15.346

@ Symmetry 2 (B1 ) :    13.658

@ Symmetry 3 (B2 ) :    18.517

@ Symmetry 4 (A2 ) :  No IPs in this symmetry

  === End of HF-SCF KT output ===
--------------------------------------------------------------------------------


 CPU and wall time for SCF :       0.013       0.015


 ----- Output from SIRIUS MP2 module -----

 Reference: H.J.Aa.Jensen, P.Jørgensen, H.Ågren, and J.Olsen,
            J. Chem. Phys. 88, 3834 (1988); 89, 5354 (1988)

 Checking that the closed shell orbitals are canonical Hartree-Fock orbitals

    Number of electrons  :   10
    Closed shell orbitals:    3    1    1    0

 Generating Fock matrix

 Hartree-Fock electronic energy:         -84.816835947073
 Hartree-Fock total      energy:         -75.978596525597

 Hartree-Fock orbital energies, symmetry 1 ( A1 ),    3 occupied SCF orbitals

       -20.57198858    -1.34123273    -0.56395821     0.19313794     1.14985355
         1.22895699     1.71116035

 Hartree-Fock orbital energies, symmetry 2 ( B1 ),    1 occupied SCF orbitals

        -0.50191536     1.16246482

 Hartree-Fock orbital energies, symmetry 3 ( B2 ),    1 occupied SCF orbitals

        -0.68048634     0.28700363     1.01929936     1.36357686

    E(LUMO) :     0.19313794   (in symmetry 1)
  - E(HOMO) :    -0.50191536   (in symmetry 2)
  --------------------------
    gap     :     0.69505329

 2-el. integral transformation level 5: Total CPU and WALL times (sec)       0.003       0.077

 MP2 move   0.080931 electrons to unoccupied HF orbitals


@   Hartree-Fock total energy   :           -75.9785965256
@   + MP2 contribution          :            -0.1328950731
@   = MP2 second order energy   :           -76.1114915987

 MP2INFO for SOPPA (RHF orbitals) written to SIRIFC

 Natural orbital occupation numbers, symmetry 1 (irrep A1 )
 Sum =     6.00014195; RHF =     6.00000000; Difference =     0.00014195

         1.99995686     1.99001006     1.97522291     0.02305188     0.01003019
         0.00165265     0.00021740

 Natural orbital occupation numbers, symmetry 2 (irrep B1 )
 Sum =     1.99931938; RHF =     2.00000000; Difference =    -0.00068062

         1.98159692     0.01772246

 Natural orbital occupation numbers, symmetry 3 (irrep B2 )
 Sum =     2.00053867; RHF =     2.00000000; Difference =     0.00053867

         1.97279403     0.02501955     0.00241515     0.00030994

 Time used for MP2 natural orbitals :       0.004 CPU seconds,       0.079 wall seconds.

 CPU and wall time for MP2 :       0.004       0.079


                       .-----------------------------------.
                       | --- Final results from SIRIUS --- |
                       `-----------------------------------'


@    Spin multiplicity:           1
@    Spatial symmetry:            1 ( irrep  A1  in C2v )
@    Total charge of molecule:    0

@    Final HF energy:             -75.978596525597                 
@    Nuclear repulsion:             8.838239421476
@    Electronic energy:           -84.816835947073

@    Final gradient norm:           0.000000853938

 
     Date and time (Linux)  : Thu May 19 15:08:22 2022
     Host name              : fe-ac-02.escience.sdu.dk                

  Total CPU  time used in SIRIUS :   0.02 seconds
  Total wall time used in SIRIUS :   0.10 seconds

 
     Date and time (Linux)  : Thu May 19 15:08:22 2022
     Host name              : fe-ac-02.escience.sdu.dk                


                     .---------------------------------------.
                     | End of Wave Function Section (SIRIUS) |
                     `---------------------------------------'



 @ Next numerical derivative component
 -------------------------------------

@       -1


 **************************************************************************************
 ****************** Output of molecule and basis set info suppressed ******************
 **************************************************************************************



                      SYMADD: Requested addition of symmetry
                      --------------------------------------

 Symmetry test threshold:  5.00E-06

 Symmetry class found: C(2v)          

 The following symmetry elements were found:   X  Y     


                     .---------------------------------------.
                     | Starting in Integral Section (HERMIT) |
                     `---------------------------------------'



                      Nuclear contribution to dipole moments
                      --------------------------------------

                 au               Debye          C m (/(10**-30)

      z      1.06996375         2.71957641         9.07153045


  Total CPU  time used in HERMIT:   0.01 seconds
  Total wall time used in HERMIT:   0.03 seconds


                        .----------------------------------.
                        | End of Integral Section (HERMIT) |
                        `----------------------------------'



                   .--------------------------------------------.
                   | Starting in Wave Function Section (SIRIUS) |
                   `--------------------------------------------'

* Read MO coefficients from SIRIUS.RST with label "NEWORB  " and header info: 19May22  MP2SAVE 

 **********************************************************************
 *SIRIUS* a direct, restricted step, second order MCSCF program       *
 **********************************************************************

 (Wave function specification suppressed here, see output above for initial geometry.)


 ***********************************************
 ***** DIIS acceleration of SCF iterations *****
 ***********************************************

 C1-DIIS algorithm; max error vectors =    8

 Iter      Total energy        Error norm    Delta(E)  DIIS dim.
 -----------------------------------------------------------------------------

Calculating AOSUPINT

---> (Re)generating AOTWOINT

 Threshold for neglecting two-electron integrals:  1.00D-12
 HERMIT - Number of two-electron integrals written:        1270 ( 30.3% )
 HERMIT - Megabytes written:                              0.021

     (Precalculated AO two-electron integrals are transformed to P-supermatrix elements.
      Threshold for discarding integrals :  1.00D-12 )
@  1    -75.9773377959        9.58385D-02    1.26D-03    1
      Virial theorem: -V/T =      2.002441
@    MULPOP   H1  _1  0.37; H1  _2  0.37; O      -0.73; 
 -----------------------------------------------------------------------------
@  2    -75.9779989676        3.04220D-02   -6.61D-04    2
      Virial theorem: -V/T =      2.001488
@    MULPOP   H1  _1  0.39; H1  _2  0.39; O      -0.78; 
 -----------------------------------------------------------------------------
@  3    -75.9780394664        1.45288D-02   -4.05D-05    3
      Virial theorem: -V/T =      2.002193
@    MULPOP   H1  _1  0.39; H1  _2  0.39; O      -0.78; 
 -----------------------------------------------------------------------------
@  4    -75.9780501756        1.11159D-03   -1.07D-05    4
      Virial theorem: -V/T =      2.001915
@    MULPOP   H1  _1  0.39; H1  _2  0.39; O      -0.79; 
 -----------------------------------------------------------------------------
@  5    -75.9780503412        2.04708D-04   -1.66D-07    5
      Virial theorem: -V/T =      2.001917
@    MULPOP   H1  _1  0.39; H1  _2  0.39; O      -0.78; 
 -----------------------------------------------------------------------------
@  6    -75.9780503473        2.88064D-05   -6.19D-09    6
      Virial theorem: -V/T =      2.001916
@    MULPOP   H1  _1  0.39; H1  _2  0.39; O      -0.78; 
 -----------------------------------------------------------------------------
@  7    -75.9780503475        7.15658D-06   -1.63D-10    7
      Virial theorem: -V/T =      2.001916
@    MULPOP   H1  _1  0.39; H1  _2  0.39; O      -0.78; 
 -----------------------------------------------------------------------------
@  8    -75.9780503475        5.38968D-07   -9.69D-12    8

@ *** DIIS converged in   8 iterations !
@     Converged SCF energy, gradient:    -75.978050347509    5.39D-07
    - total time used in SIRFCK :              0.00 seconds

 --- Writing SIRIFC interface file

--------------------------------------------------------------------------------


     .--------------------------------------------------.
     | HF-SCF KT IPs [a.u. & eV] from Koopmans' theorem |
     `--------------------------------------------------'


     HF-SCF KT symmetry 1 ( A1 ) in point group C2v -- 3 principal poles with pole strength 1

   ============  ============  ============
      20.572736      1.337855      0.562018
     559.812614     36.404884     15.293280
   ============  ============  ============

     HF-SCF KT symmetry 2 ( B1 ) in point group C2v -- 1 principal poles with pole strength 1

   ============
       0.501410
      13.644058
   ============

     HF-SCF KT symmetry 3 ( B2 ) in point group C2v -- 1 principal poles with pole strength 1

   ============
       0.678506
      18.463092
   ============

@ Summary of HF-SCF KT ionization potentials [eV]:

@ Symmetry 1 (A1 ) :   559.813      36.405      15.293

@ Symmetry 2 (B1 ) :    13.644

@ Symmetry 3 (B2 ) :    18.463

@ Symmetry 4 (A2 ) :  No IPs in this symmetry

  === End of HF-SCF KT output ===
--------------------------------------------------------------------------------


 CPU and wall time for SCF :       0.010       0.010


 ----- Output from SIRIUS MP2 module -----

 Reference: H.J.Aa.Jensen, P.Jørgensen, H.Ågren, and J.Olsen,
            J. Chem. Phys. 88, 3834 (1988); 89, 5354 (1988)

 Checking that the closed shell orbitals are canonical Hartree-Fock orbitals

    Number of electrons  :   10
    Closed shell orbitals:    3    1    1    0

 Generating Fock matrix

 Hartree-Fock electronic energy:         -84.764376422927
 Hartree-Fock total      energy:         -75.978050347509

 Hartree-Fock orbital energies, symmetry 1 ( A1 ),    3 occupied SCF orbitals

       -20.57273565    -1.33785492    -0.56201771     0.19190511     1.14106731
         1.22838697     1.70866770

 Hartree-Fock orbital energies, symmetry 2 ( B1 ),    1 occupied SCF orbitals

        -0.50140991     1.16264439

 Hartree-Fock orbital energies, symmetry 3 ( B2 ),    1 occupied SCF orbitals

        -0.67850616     0.28537492     1.01994688     1.36298707

    E(LUMO) :     0.19190511   (in symmetry 1)
  - E(HOMO) :    -0.50140991   (in symmetry 2)
  --------------------------
    gap     :     0.69331501

 2-el. integral transformation level 5: Total CPU and WALL times (sec)       0.001       0.002

 MP2 move   0.081585 electrons to unoccupied HF orbitals


@   Hartree-Fock total energy   :           -75.9780503475
@   + MP2 contribution          :            -0.1333792321
@   = MP2 second order energy   :           -76.1114295796

 MP2INFO for SOPPA (RHF orbitals) written to SIRIFC

 Natural orbital occupation numbers, symmetry 1 (irrep A1 )
 Sum =     6.00018539; RHF =     6.00000000; Difference =     0.00018539

         1.99995686     1.98997058     1.97496853     0.02333116     0.01006530
         0.00167275     0.00022020

 Natural orbital occupation numbers, symmetry 2 (irrep B1 )
 Sum =     1.99931611; RHF =     2.00000000; Difference =    -0.00068389

         1.98153482     0.01778129

 Natural orbital occupation numbers, symmetry 3 (irrep B2 )
 Sum =     2.00049850; RHF =     2.00000000; Difference =     0.00049850

         1.97250670     0.02527462     0.00240194     0.00031524

 Time used for MP2 natural orbitals :       0.002 CPU seconds,       0.004 wall seconds.

 CPU and wall time for MP2 :       0.002       0.005


                       .-----------------------------------.
                       | --- Final results from SIRIUS --- |
                       `-----------------------------------'


@    Spin multiplicity:           1
@    Spatial symmetry:            1 ( irrep  A1  in C2v )
@    Total charge of molecule:    0

@    Final HF energy:             -75.978050347509                 
@    Nuclear repulsion:             8.786326075418
@    Electronic energy:           -84.764376422927

@    Final gradient norm:           0.000000538968

 
     Date and time (Linux)  : Thu May 19 15:08:22 2022
     Host name              : fe-ac-02.escience.sdu.dk                

  Total CPU  time used in SIRIUS :   0.01 seconds
  Total wall time used in SIRIUS :   0.02 seconds

 
     Date and time (Linux)  : Thu May 19 15:08:22 2022
     Host name              : fe-ac-02.escience.sdu.dk                


                     .---------------------------------------.
                     | End of Wave Function Section (SIRIUS) |
                     `---------------------------------------'



 @ Next numerical derivative component
 -------------------------------------

@        2


 **************************************************************************************
 ****************** Output of molecule and basis set info suppressed ******************
 **************************************************************************************



                      SYMADD: Requested addition of symmetry
                      --------------------------------------

 Symmetry test threshold:  5.00E-06

 Symmetry class found: C(2v)          

 The following symmetry elements were found:   X  Y     


                     .---------------------------------------.
                     | Starting in Integral Section (HERMIT) |
                     `---------------------------------------'



                      Nuclear contribution to dipole moments
                      --------------------------------------

                 au               Debye          C m (/(10**-30)

      z      1.07619231         2.73540783         9.12433838


  Total CPU  time used in HERMIT:   0.01 seconds
  Total wall time used in HERMIT:   0.03 seconds


                        .----------------------------------.
                        | End of Integral Section (HERMIT) |
                        `----------------------------------'



                   .--------------------------------------------.
                   | Starting in Wave Function Section (SIRIUS) |
                   `--------------------------------------------'

* Read MO coefficients from SIRIUS.RST with label "NEWORB  " and header info: 19May22  MP2SAVE 

 **********************************************************************
 *SIRIUS* a direct, restricted step, second order MCSCF program       *
 **********************************************************************

 (Wave function specification suppressed here, see output above for initial geometry.)


 ***********************************************
 ***** DIIS acceleration of SCF iterations *****
 ***********************************************

 C1-DIIS algorithm; max error vectors =    8

 Iter      Total energy        Error norm    Delta(E)  DIIS dim.
 -----------------------------------------------------------------------------

Calculating AOSUPINT

---> (Re)generating AOTWOINT

 Threshold for neglecting two-electron integrals:  1.00D-12
 HERMIT - Number of two-electron integrals written:        1270 ( 30.3% )
 HERMIT - Megabytes written:                              0.021

     (Precalculated AO two-electron integrals are transformed to P-supermatrix elements.
      Threshold for discarding integrals :  1.00D-12 )
@  1    -75.9771504432        8.98289D-02    9.00D-04    1
      Virial theorem: -V/T =      2.002607
@    MULPOP   H1  _1  0.37; H1  _2  0.37; O      -0.74; 
 -----------------------------------------------------------------------------
@  2    -75.9777410986        3.31951D-02   -5.91D-04    2
      Virial theorem: -V/T =      2.001372
@    MULPOP   H1  _1  0.39; H1  _2  0.39; O      -0.78; 
 -----------------------------------------------------------------------------
@  3    -75.9777881125        1.37281D-02   -4.70D-05    3
      Virial theorem: -V/T =      2.002134
@    MULPOP   H1  _1  0.39; H1  _2  0.39; O      -0.78; 
 -----------------------------------------------------------------------------
@  4    -75.9777984989        1.03091D-03   -1.04D-05    4
      Virial theorem: -V/T =      2.001877
@    MULPOP   H1  _1  0.39; H1  _2  0.39; O      -0.78; 
 -----------------------------------------------------------------------------
@  5    -75.9777986541        1.89774D-04   -1.55D-07    5
      Virial theorem: -V/T =      2.001878
@    MULPOP   H1  _1  0.39; H1  _2  0.39; O      -0.78; 
 -----------------------------------------------------------------------------
@  6    -75.9777986602        3.44723D-05   -6.06D-09    6
      Virial theorem: -V/T =      2.001877
@    MULPOP   H1  _1  0.39; H1  _2  0.39; O      -0.78; 
 -----------------------------------------------------------------------------
@  7    -75.9777986604        6.66506D-06   -2.37D-10    7
      Virial theorem: -V/T =      2.001877
@    MULPOP   H1  _1  0.39; H1  _2  0.39; O      -0.78; 
 -----------------------------------------------------------------------------
@  8    -75.9777986604        5.02160D-07   -7.45D-12    8

@ *** DIIS converged in   8 iterations !
@     Converged SCF energy, gradient:    -75.977798660412    5.02D-07
    - total time used in SIRFCK :              0.00 seconds

 --- Writing SIRIFC interface file

--------------------------------------------------------------------------------


     .--------------------------------------------------.
     | HF-SCF KT IPs [a.u. & eV] from Koopmans' theorem |
     `--------------------------------------------------'


     HF-SCF KT symmetry 1 ( A1 ) in point group C2v -- 3 principal poles with pole strength 1

   ============  ============  ============
      20.573094      1.338725      0.563255
     559.822363     36.428563     15.326947
   ============  ============  ============

     HF-SCF KT symmetry 2 ( B1 ) in point group C2v -- 1 principal poles with pole strength 1

   ============
       0.501739
      13.653010
   ============

     HF-SCF KT symmetry 3 ( B2 ) in point group C2v -- 1 principal poles with pole strength 1

   ============
       0.677722
      18.441746
   ============

@ Summary of HF-SCF KT ionization potentials [eV]:

@ Symmetry 1 (A1 ) :   559.822      36.429      15.327

@ Symmetry 2 (B1 ) :    13.653

@ Symmetry 3 (B2 ) :    18.442

@ Symmetry 4 (A2 ) :  No IPs in this symmetry

  === End of HF-SCF KT output ===
--------------------------------------------------------------------------------


 CPU and wall time for SCF :       0.011       0.015


 ----- Output from SIRIUS MP2 module -----

 Reference: H.J.Aa.Jensen, P.Jørgensen, H.Ågren, and J.Olsen,
            J. Chem. Phys. 88, 3834 (1988); 89, 5354 (1988)

 Checking that the closed shell orbitals are canonical Hartree-Fock orbitals

    Number of electrons  :   10
    Closed shell orbitals:    3    1    1    0

 Generating Fock matrix

 Hartree-Fock electronic energy:         -84.769677884062
 Hartree-Fock total      energy:         -75.977798660412

 Hartree-Fock orbital energies, symmetry 1 ( A1 ),    3 occupied SCF orbitals

       -20.57309392    -1.33872511    -0.56325494     0.19186682     1.14335030
         1.22946046     1.71096672

 Hartree-Fock orbital energies, symmetry 2 ( B1 ),    1 occupied SCF orbitals

        -0.50173889     1.16240653

 Hartree-Fock orbital energies, symmetry 3 ( B2 ),    1 occupied SCF orbitals

        -0.67772172     0.28532615     1.01738855     1.36237378

    E(LUMO) :     0.19186682   (in symmetry 1)
  - E(HOMO) :    -0.50173889   (in symmetry 2)
  --------------------------
    gap     :     0.69360571

 2-el. integral transformation level 5: Total CPU and WALL times (sec)       0.001       0.002

 MP2 move   0.081612 electrons to unoccupied HF orbitals


@   Hartree-Fock total energy   :           -75.9777986604
@   + MP2 contribution          :            -0.1333964307
@   = MP2 second order energy   :           -76.1111950911

 MP2INFO for SOPPA (RHF orbitals) written to SIRIFC

 Natural orbital occupation numbers, symmetry 1 (irrep A1 )
 Sum =     6.00014365; RHF =     6.00000000; Difference =     0.00014365

         1.99995687     1.98998237     1.97494867     0.02333451     0.01004330
         0.00165648     0.00022145

 Natural orbital occupation numbers, symmetry 2 (irrep B1 )
 Sum =     1.99931682; RHF =     2.00000000; Difference =    -0.00068318

         1.98154002     0.01777680

 Natural orbital occupation numbers, symmetry 3 (irrep B2 )
 Sum =     2.00053953; RHF =     2.00000000; Difference =     0.00053953

         1.97248305     0.02532560     0.00241603     0.00031485

 Time used for MP2 natural orbitals :       0.002 CPU seconds,       0.005 wall seconds.

 CPU and wall time for MP2 :       0.002       0.005


                       .-----------------------------------.
                       | --- Final results from SIRIUS --- |
                       `-----------------------------------'


@    Spin multiplicity:           1
@    Spatial symmetry:            1 ( irrep  A1  in C2v )
@    Total charge of molecule:    0

@    Final HF energy:             -75.977798660412                 
@    Nuclear repulsion:             8.791879223650
@    Electronic energy:           -84.769677884062

@    Final gradient norm:           0.000000502160

 
     Date and time (Linux)  : Thu May 19 15:08:22 2022
     Host name              : fe-ac-02.escience.sdu.dk                

  Total CPU  time used in SIRIUS :   0.02 seconds
  Total wall time used in SIRIUS :   0.02 seconds

 
     Date and time (Linux)  : Thu May 19 15:08:22 2022
     Host name              : fe-ac-02.escience.sdu.dk                


                     .---------------------------------------.
                     | End of Wave Function Section (SIRIUS) |
                     `---------------------------------------'



 @ Next numerical derivative component
 -------------------------------------

@       -2


 **************************************************************************************
 ****************** Output of molecule and basis set info suppressed ******************
 **************************************************************************************



                      SYMADD: Requested addition of symmetry
                      --------------------------------------

 Symmetry test threshold:  5.00E-06

 Symmetry class found: C(2v)          

 The following symmetry elements were found:   X  Y     


                     .---------------------------------------.
                     | Starting in Integral Section (HERMIT) |
                     `---------------------------------------'



                      Nuclear contribution to dipole moments
                      --------------------------------------

                 au               Debye          C m (/(10**-30)

      z      1.06373519         2.70374499         9.01872253


  Total CPU  time used in HERMIT:   0.01 seconds
  Total wall time used in HERMIT:   0.02 seconds


                        .----------------------------------.
                        | End of Integral Section (HERMIT) |
                        `----------------------------------'



                   .--------------------------------------------.
                   | Starting in Wave Function Section (SIRIUS) |
                   `--------------------------------------------'

* Read MO coefficients from SIRIUS.RST with label "NEWORB  " and header info: 19May22  MP2SAVE 

 **********************************************************************
 *SIRIUS* a direct, restricted step, second order MCSCF program       *
 **********************************************************************

 (Wave function specification suppressed here, see output above for initial geometry.)


 ***********************************************
 ***** DIIS acceleration of SCF iterations *****
 ***********************************************

 C1-DIIS algorithm; max error vectors =    8

 Iter      Total energy        Error norm    Delta(E)  DIIS dim.
 -----------------------------------------------------------------------------

Calculating AOSUPINT

---> (Re)generating AOTWOINT

 Threshold for neglecting two-electron integrals:  1.00D-12
 HERMIT - Number of two-electron integrals written:        1270 ( 30.3% )
 HERMIT - Megabytes written:                              0.021

     (Precalculated AO two-electron integrals are transformed to P-supermatrix elements.
      Threshold for discarding integrals :  1.00D-12 )
@  1    -75.9781878887        8.93832D-02   -3.89D-04    1
      Virial theorem: -V/T =      2.002536
@    MULPOP   H1  _1  0.37; H1  _2  0.37; O      -0.73; 
 -----------------------------------------------------------------------------
@  2    -75.9787896564        3.83545D-02   -6.02D-04    2
      Virial theorem: -V/T =      2.001035
@    MULPOP   H1  _1  0.39; H1  _2  0.39; O      -0.78; 
 -----------------------------------------------------------------------------
@  3    -75.9788530328        1.21316D-02   -6.34D-05    3
      Virial theorem: -V/T =      2.001888
@    MULPOP   H1  _1  0.39; H1  _2  0.39; O      -0.78; 
 -----------------------------------------------------------------------------
@  4    -75.9788632380        1.28244D-03   -1.02D-05    4
      Virial theorem: -V/T =      2.001673
@    MULPOP   H1  _1  0.39; H1  _2  0.39; O      -0.78; 
 -----------------------------------------------------------------------------
@  5    -75.9788635429        2.49434D-04   -3.05D-07    5
      Virial theorem: -V/T =      2.001682
@    MULPOP   H1  _1  0.39; H1  _2  0.39; O      -0.78; 
 -----------------------------------------------------------------------------
@  6    -75.9788635560        4.80598D-05   -1.32D-08    6
      Virial theorem: -V/T =      2.001682
@    MULPOP   H1  _1  0.39; H1  _2  0.39; O      -0.78; 
 -----------------------------------------------------------------------------
@  7    -75.9788635564        5.30875D-06   -3.73D-10    7
      Virial theorem: -V/T =      2.001682
@    MULPOP   H1  _1  0.39; H1  _2  0.39; O      -0.78; 
 -----------------------------------------------------------------------------
@  8    -75.9788635564        6.93018D-07   -2.84D-12    8

@ *** DIIS converged in   8 iterations !
@     Converged SCF energy, gradient:    -75.978863556418    6.93D-07
    - total time used in SIRFCK :              0.00 seconds

 --- Writing SIRIFC interface file

--------------------------------------------------------------------------------


     .--------------------------------------------------.
     | HF-SCF KT IPs [a.u. & eV] from Koopmans' theorem |
     `--------------------------------------------------'


     HF-SCF KT symmetry 1 ( A1 ) in point group C2v -- 3 principal poles with pole strength 1

   ============  ============  ============
      20.571632      1.340349      0.562712
     559.782572     36.472748     15.312181
   ============  ============  ============

     HF-SCF KT symmetry 2 ( B1 ) in point group C2v -- 1 principal poles with pole strength 1

   ============
       0.501587
      13.648868
   ============

     HF-SCF KT symmetry 3 ( B2 ) in point group C2v -- 1 principal poles with pole strength 1

   ============
       0.681286
      18.538724
   ============

@ Summary of HF-SCF KT ionization potentials [eV]:

@ Symmetry 1 (A1 ) :   559.783      36.473      15.312

@ Symmetry 2 (B1 ) :    13.649

@ Symmetry 3 (B2 ) :    18.539

@ Symmetry 4 (A2 ) :  No IPs in this symmetry

  === End of HF-SCF KT output ===
--------------------------------------------------------------------------------


 CPU and wall time for SCF :       0.007       0.009


 ----- Output from SIRIUS MP2 module -----

 Reference: H.J.Aa.Jensen, P.Jørgensen, H.Ågren, and J.Olsen,
            J. Chem. Phys. 88, 3834 (1988); 89, 5354 (1988)

 Checking that the closed shell orbitals are canonical Hartree-Fock orbitals

    Number of electrons  :   10
    Closed shell orbitals:    3    1    1    0

 Generating Fock matrix

 Hartree-Fock electronic energy:         -84.811471590083
 Hartree-Fock total      energy:         -75.978863556418

 Hartree-Fock orbital energies, symmetry 1 ( A1 ),    3 occupied SCF orbitals

       -20.57163162    -1.34034886    -0.56271233     0.19318476     1.14756399
         1.22781607     1.70886579

 Hartree-Fock orbital energies, symmetry 2 ( B1 ),    1 occupied SCF orbitals

        -0.50158669     1.16270198

 Hartree-Fock orbital energies, symmetry 3 ( B2 ),    1 occupied SCF orbitals

        -0.68128558     0.28704402     1.02190549     1.36415890

    E(LUMO) :     0.19318476   (in symmetry 1)
  - E(HOMO) :    -0.50158669   (in symmetry 2)
  --------------------------
    gap     :     0.69477145

 2-el. integral transformation level 5: Total CPU and WALL times (sec)       0.001       0.002

 MP2 move   0.080904 electrons to unoccupied HF orbitals


@   Hartree-Fock total energy   :           -75.9788635564
@   + MP2 contribution          :            -0.1328791835
@   = MP2 second order energy   :           -76.1117427399

 MP2INFO for SOPPA (RHF orbitals) written to SIRIFC

 Natural orbital occupation numbers, symmetry 1 (irrep A1 )
 Sum =     6.00018345; RHF =     6.00000000; Difference =     0.00018345

         1.99995686     1.98999817     1.97524186     0.02304909     0.01005230
         0.00166900     0.00021618

 Natural orbital occupation numbers, symmetry 2 (irrep B1 )
 Sum =     1.99931867; RHF =     2.00000000; Difference =    -0.00068133

         1.98159166     0.01772702

 Natural orbital occupation numbers, symmetry 3 (irrep B2 )
 Sum =     2.00049787; RHF =     2.00000000; Difference =     0.00049787

         1.97281723     0.02496932     0.00240101     0.00031032

 Time used for MP2 natural orbitals :       0.003 CPU seconds,       0.010 wall seconds.

 CPU and wall time for MP2 :       0.003       0.010


                       .-----------------------------------.
                       | --- Final results from SIRIUS --- |
                       `-----------------------------------'


@    Spin multiplicity:           1
@    Spatial symmetry:            1 ( irrep  A1  in C2v )
@    Total charge of molecule:    0

@    Final HF energy:             -75.978863556418                 
@    Nuclear repulsion:             8.832608033665
@    Electronic energy:           -84.811471590083

@    Final gradient norm:           0.000000693018

 
     Date and time (Linux)  : Thu May 19 15:08:22 2022
     Host name              : fe-ac-02.escience.sdu.dk                

  Total CPU  time used in SIRIUS :   0.01 seconds
  Total wall time used in SIRIUS :   0.02 seconds

 
     Date and time (Linux)  : Thu May 19 15:08:22 2022
     Host name              : fe-ac-02.escience.sdu.dk                


                     .---------------------------------------.
                     | End of Wave Function Section (SIRIUS) |
                     `---------------------------------------'



 @ Next numerical derivative component
 -------------------------------------

@        3


 **************************************************************************************
 ****************** Output of molecule and basis set info suppressed ******************
 **************************************************************************************



                      SYMADD: Requested addition of symmetry
                      --------------------------------------

 Symmetry test threshold:  5.00E-06

 Symmetry class found: C(2v)          

 The following symmetry elements were found:   X  Y     


                     .---------------------------------------.
                     | Starting in Integral Section (HERMIT) |
                     `---------------------------------------'



                      Nuclear contribution to dipole moments
                      --------------------------------------

                 au               Debye          C m (/(10**-30)

      z      1.06115524         2.69718741         8.99684877


  Total CPU  time used in HERMIT:   0.01 seconds
  Total wall time used in HERMIT:   0.03 seconds


                        .----------------------------------.
                        | End of Integral Section (HERMIT) |
                        `----------------------------------'



                   .--------------------------------------------.
                   | Starting in Wave Function Section (SIRIUS) |
                   `--------------------------------------------'

* Read MO coefficients from SIRIUS.RST with label "NEWORB  " and header info: 19May22  MP2SAVE 

 **********************************************************************
 *SIRIUS* a direct, restricted step, second order MCSCF program       *
 **********************************************************************

 (Wave function specification suppressed here, see output above for initial geometry.)


 ***********************************************
 ***** DIIS acceleration of SCF iterations *****
 ***********************************************

 C1-DIIS algorithm; max error vectors =    8

 Iter      Total energy        Error norm    Delta(E)  DIIS dim.
 -----------------------------------------------------------------------------

Calculating AOSUPINT

---> (Re)generating AOTWOINT

 Threshold for neglecting two-electron integrals:  1.00D-12
 HERMIT - Number of two-electron integrals written:        1270 ( 30.3% )
 HERMIT - Megabytes written:                              0.021

     (Precalculated AO two-electron integrals are transformed to P-supermatrix elements.
      Threshold for discarding integrals :  1.00D-12 )
@  1    -75.9784285466        8.92392D-02    4.35D-04    1
      Virial theorem: -V/T =      2.002398
@    MULPOP   H1  _1  0.37; H1  _2  0.37; O      -0.74; 
 -----------------------------------------------------------------------------
@  2    -75.9790130623        3.45529D-02   -5.85D-04    2
      Virial theorem: -V/T =      2.001092
@    MULPOP   H1  _1  0.39; H1  _2  0.39; O      -0.78; 
 -----------------------------------------------------------------------------
@  3    -75.9790638724        1.31187D-02   -5.08D-05    3
      Virial theorem: -V/T =      2.001880
@    MULPOP   H1  _1  0.39; H1  _2  0.39; O      -0.78; 
[...]
@     Converged SCF energy, gradient:    -75.983813286301    1.98D-07
    - total time used in SIRFCK :              0.00 seconds

 --- Writing SIRIFC interface file

--------------------------------------------------------------------------------


     .--------------------------------------------------.
     | HF-SCF KT IPs [a.u. & eV] from Koopmans' theorem |
     `--------------------------------------------------'


     HF-SCF KT symmetry 1 ( A1 ) in point group C2v -- 3 principal poles with pole strength 1

   ============  ============  ============
      20.561071      1.341051      0.549391
     559.495190     36.491842     14.949681
   ============  ============  ============

     HF-SCF KT symmetry 2 ( B1 ) in point group C2v -- 1 principal poles with pole strength 1

   ============
       0.498066
      13.553072
   ============

     HF-SCF KT symmetry 3 ( B2 ) in point group C2v -- 1 principal poles with pole strength 1

   ============
       0.705784
      19.205353
   ============

@ Summary of HF-SCF KT ionization potentials [eV]:

@ Symmetry 1 (A1 ) :   559.495      36.492      14.950

@ Symmetry 2 (B1 ) :    13.553

@ Symmetry 3 (B2 ) :    19.205

@ Symmetry 4 (A2 ) :  No IPs in this symmetry

  === End of HF-SCF KT output ===
--------------------------------------------------------------------------------


 CPU and wall time for SCF :       0.007       0.012


 ----- Output from SIRIUS MP2 module -----

 Reference: H.J.Aa.Jensen, P.Jørgensen, H.Ågren, and J.Olsen,
            J. Chem. Phys. 88, 3834 (1988); 89, 5354 (1988)

 Checking that the closed shell orbitals are canonical Hartree-Fock orbitals

    Number of electrons  :   10
    Closed shell orbitals:    3    1    1    0

 Generating Fock matrix

 Hartree-Fock electronic energy:         -84.977254702345
 Hartree-Fock total      energy:         -75.983813286301

 Hartree-Fock orbital energies, symmetry 1 ( A1 ),    3 occupied SCF orbitals

       -20.56107055    -1.34105054    -0.54939068     0.19959229     1.13982167
         1.21160087     1.68140492

 Hartree-Fock orbital energies, symmetry 2 ( B1 ),    1 occupied SCF orbitals

        -0.49806626     1.16619801

 Hartree-Fock orbital energies, symmetry 3 ( B2 ),    1 occupied SCF orbitals

        -0.70578376     0.29513900     1.07463242     1.37868058

    E(LUMO) :     0.19959229   (in symmetry 1)
  - E(HOMO) :    -0.49806626   (in symmetry 2)
  --------------------------
    gap     :     0.69765856

 2-el. integral transformation level 5: Total CPU and WALL times (sec)       0.001       0.004

 MP2 move   0.077477 electrons to unoccupied HF orbitals


@   Hartree-Fock total energy   :           -75.9838132863
@   + MP2 contribution          :            -0.1303800241
@   = MP2 second order energy   :           -76.1141933104

 MP2INFO for SOPPA (RHF orbitals) written to SIRIFC

 Natural orbital occupation numbers, symmetry 1 (irrep A1 )
 Sum =     6.00074195; RHF =     6.00000000; Difference =     0.00074195

         1.99995674     1.98996347     1.97671739     0.02173280     0.01030444
         0.00188374     0.00018337

 Natural orbital occupation numbers, symmetry 2 (irrep B1 )
 Sum =     1.99931883; RHF =     2.00000000; Difference =    -0.00068117

         1.98179556     0.01752326

 Natural orbital occupation numbers, symmetry 3 (irrep B2 )
 Sum =     1.99993923; RHF =     2.00000000; Difference =    -0.00006077

         1.97453251     0.02291495     0.00220132     0.00029045

 Time used for MP2 natural orbitals :       0.002 CPU seconds,       0.022 wall seconds.

 CPU and wall time for MP2 :       0.002       0.022


                       .-----------------------------------.
                       | --- Final results from SIRIUS --- |
                       `-----------------------------------'


@    Spin multiplicity:           1
@    Spatial symmetry:            1 ( irrep  A1  in C2v )
@    Total charge of molecule:    0

@    Final HF energy:             -75.983813286301                 
@    Nuclear repulsion:             8.993441416045
@    Electronic energy:           -84.977254702345

@    Final gradient norm:           0.000000198262

 
     Date and time (Linux)  : Thu May 19 15:08:25 2022
     Host name              : fe-ac-02.escience.sdu.dk                

  Total CPU  time used in SIRIUS :   0.01 seconds
  Total wall time used in SIRIUS :   0.04 seconds

 
     Date and time (Linux)  : Thu May 19 15:08:25 2022
     Host name              : fe-ac-02.escience.sdu.dk                


                     .---------------------------------------.
                     | End of Wave Function Section (SIRIUS) |
                     `---------------------------------------'



 @ Next numerical derivative component
 -------------------------------------

@    Starting geometry.


 **************************************************************************************
 ****************** Output of molecule and basis set info suppressed ******************
 **************************************************************************************



                     .---------------------------------------.
                     | Starting in Integral Section (HERMIT) |
                     `---------------------------------------'



                      Nuclear contribution to dipole moments
                      --------------------------------------

                 au               Debye          C m (/(10**-30)

      z      1.76558803         4.48767685        14.96927870


  Total CPU  time used in HERMIT:   0.01 seconds
  Total wall time used in HERMIT:   0.07 seconds


                        .----------------------------------.
                        | End of Integral Section (HERMIT) |
                        `----------------------------------'



                   .--------------------------------------------.
                   | Starting in Wave Function Section (SIRIUS) |
                   `--------------------------------------------'

* Read MO coefficients from SIRIUS.RST with label "NEWORB  " and header info: 19May22  MP2SAVE 

 **********************************************************************
 *SIRIUS* a direct, restricted step, second order MCSCF program       *
 **********************************************************************

 (Wave function specification suppressed here, see output above for initial geometry.)


 ***********************************************
 ***** DIIS acceleration of SCF iterations *****
 ***********************************************

 C1-DIIS algorithm; max error vectors =    8

 Iter      Total energy        Error norm    Delta(E)  DIIS dim.
 -----------------------------------------------------------------------------

Calculating AOSUPINT

---> (Re)generating AOTWOINT

 Threshold for neglecting two-electron integrals:  1.00D-12
 HERMIT - Number of two-electron integrals written:        1270 ( 30.3% )
 HERMIT - Megabytes written:                              0.021

     (Precalculated AO two-electron integrals are transformed to P-supermatrix elements.
      Threshold for discarding integrals :  1.00D-12 )
@  1    -74.2856297570        2.13417D+00    1.70D+00    1
      Virial theorem: -V/T =      1.926836
@    MULPOP   H1  _1  0.62; H1  _2  0.62; O      -1.23; 
 -----------------------------------------------------------------------------
@  2    -75.8930918018        1.18079D+00   -1.61D+00    2
      Virial theorem: -V/T =      2.020827
@    MULPOP   H1  _1  0.50; H1  _2  0.50; O      -1.00; 
 -----------------------------------------------------------------------------
@  3    -75.9689905978        3.54304D-01   -7.59D-02    3
      Virial theorem: -V/T =      1.999715
@    MULPOP   H1  _1  0.49; H1  _2  0.49; O      -0.98; 
 -----------------------------------------------------------------------------
@  4    -75.9828553157        9.10392D-02   -1.39D-02    4
      Virial theorem: -V/T =      2.001578
@    MULPOP   H1  _1  0.41; H1  _2  0.41; O      -0.83; 
 -----------------------------------------------------------------------------
@  5    -75.9840038394        2.60703D-02   -1.15D-03    5
      Virial theorem: -V/T =      2.000737
@    MULPOP   H1  _1  0.41; H1  _2  0.41; O      -0.81; 
 -----------------------------------------------------------------------------
@  6    -75.9841362057        3.56123D-03   -1.32D-04    6
      Virial theorem: -V/T =      2.000806
@    MULPOP   H1  _1  0.40; H1  _2  0.40; O      -0.81; 
 -----------------------------------------------------------------------------
@  7    -75.9841387762        6.60699D-04   -2.57D-06    7
      Virial theorem: -V/T =      2.000833
@    MULPOP   H1  _1  0.40; H1  _2  0.40; O      -0.81; 
 -----------------------------------------------------------------------------
@  8    -75.9841388470        5.13020D-05   -7.09D-08    8
      Virial theorem: -V/T =      2.000841
@    MULPOP   H1  _1  0.40; H1  _2  0.40; O      -0.81; 
 -----------------------------------------------------------------------------
@  9    -75.9841388473        5.74742D-06   -2.39D-10    8
      Virial theorem: -V/T =      2.000841
@    MULPOP   H1  _1  0.40; H1  _2  0.40; O      -0.81; 
 -----------------------------------------------------------------------------
@ 10    -75.9841388473        7.53960D-07   -3.96D-12    8

@ *** DIIS converged in  10 iterations !
@     Converged SCF energy, gradient:    -75.984138847255    7.54D-07
    - total time used in SIRFCK :              0.00 seconds

 --- Writing SIRIFC interface file

--------------------------------------------------------------------------------


     .--------------------------------------------------.
     | HF-SCF KT IPs [a.u. & eV] from Koopmans' theorem |
     `--------------------------------------------------'


     HF-SCF KT symmetry 1 ( A1 ) in point group C2v -- 3 principal poles with pole strength 1

   ============  ============  ============
      20.560067      1.342046      0.548875
     559.467880     36.518923     14.935646
   ============  ============  ============

     HF-SCF KT symmetry 2 ( B1 ) in point group C2v -- 1 principal poles with pole strength 1

   ============
       0.497964
      13.550278
   ============

     HF-SCF KT symmetry 3 ( B2 ) in point group C2v -- 1 principal poles with pole strength 1

   ============
       0.708305
      19.273955
   ============

@ Summary of HF-SCF KT ionization potentials [eV]:

@ Symmetry 1 (A1 ) :   559.468      36.519      14.936

@ Symmetry 2 (B1 ) :    13.550

@ Symmetry 3 (B2 ) :    19.274

@ Symmetry 4 (A2 ) :  No IPs in this symmetry

  === End of HF-SCF KT output ===
--------------------------------------------------------------------------------


 CPU and wall time for SCF :       0.008       0.015


 ----- Output from SIRIUS MP2 module -----

 Reference: H.J.Aa.Jensen, P.Jørgensen, H.Ågren, and J.Olsen,
            J. Chem. Phys. 88, 3834 (1988); 89, 5354 (1988)

 Checking that the closed shell orbitals are canonical Hartree-Fock orbitals

    Number of electrons  :   10
    Closed shell orbitals:    3    1    1    0

 Generating Fock matrix

 Hartree-Fock electronic energy:         -85.004875499739
 Hartree-Fock total      energy:         -75.984138847255

 Hartree-Fock orbital energies, symmetry 1 ( A1 ),    3 occupied SCF orbitals

       -20.56006691    -1.34204578    -0.54887491     0.20042720     1.14119841
         1.21052748     1.68016850

 Hartree-Fock orbital energies, symmetry 2 ( B1 ),    1 occupied SCF orbitals

        -0.49796356     1.16639961

 Hartree-Fock orbital energies, symmetry 3 ( B2 ),    1 occupied SCF orbitals

        -0.70830485     0.29608306     1.07911142     1.37996271

    E(LUMO) :     0.20042720   (in symmetry 1)
  - E(HOMO) :    -0.49796356   (in symmetry 2)
  --------------------------
    gap     :     0.69839076

 2-el. integral transformation level 5: Total CPU and WALL times (sec)       0.001       0.005

 MP2 move   0.077071 electrons to unoccupied HF orbitals


@   Hartree-Fock total energy   :           -75.9841388473
@   + MP2 contribution          :            -0.1300730984
@   = MP2 second order energy   :           -76.1142119457

 MP2INFO for SOPPA (RHF orbitals) written to SIRIFC

 Natural orbital occupation numbers, symmetry 1 (irrep A1 )
 Sum =     6.00077100; RHF =     6.00000000; Difference =     0.00077100

         1.99995672     1.98997149     1.97688198     0.02157149     0.01031363
         0.00189523     0.00018046

 Natural orbital occupation numbers, symmetry 2 (irrep B1 )
 Sum =     1.99931950; RHF =     2.00000000; Difference =    -0.00068050

         1.98182766     0.01749184

 Natural orbital occupation numbers, symmetry 3 (irrep B2 )
 Sum =     1.99990950; RHF =     2.00000000; Difference =    -0.00009050

         1.97472735     0.02270551     0.00218911     0.00028754

 Time used for MP2 natural orbitals :       0.002 CPU seconds,       0.008 wall seconds.

 CPU and wall time for MP2 :       0.002       0.008


                       .-----------------------------------.
                       | --- Final results from SIRIUS --- |
                       `-----------------------------------'


@    Spin multiplicity:           1
@    Spatial symmetry:            1 ( irrep  A1  in C2v )
@    Total charge of molecule:    0

@    Final HF energy:             -75.984138847255                 
@    Nuclear repulsion:             9.020736652484
@    Electronic energy:           -85.004875499739

@    Final gradient norm:           0.000000753960

 
     Date and time (Linux)  : Thu May 19 15:08:25 2022
     Host name              : fe-ac-02.escience.sdu.dk                

  Total CPU  time used in SIRIUS :   0.01 seconds
  Total wall time used in SIRIUS :   0.03 seconds

 
     Date and time (Linux)  : Thu May 19 15:08:25 2022
     Host name              : fe-ac-02.escience.sdu.dk                


                     .---------------------------------------.
                     | End of Wave Function Section (SIRIUS) |
                     `---------------------------------------'



                    Numerical gradient in symmetry coordinates
                    ------------------------------------------



                         Gradient in symmetry coordinates
                         --------------------------------

                                     0.00000035
                                     0.00000071
                                     0.00000113


                        Gradient in cartesian coordinates
                        ---------------------------------

 H1  _1     0.0000000000            0.0000002477            0.0000004996
 H1  _2     0.0000000000           -0.0000002477            0.0000004996
 O          0.0000000000            0.0000000000            0.0000011343


                     Gradient in Dalton symmetry coordinates
                     ---------------------------------------

                         H1   y     0.0000004954
                         H1   z     0.0000009993
                         O    z     0.0000011343


@Number of energy   calculations done:         7


 *************************************************************************************
 ****************** Numerical derivatives have now been calculated. ******************
 *************************************************************************************



            *********************************************************
            *** Output from geometry convergence control (MINEND) ***
            *********************************************************


 Energy converged       yes 
 Gradient converged     yes 
 Step converged         yes 
 Conditions fullfilled   3
 Required conditions     2
 Totally sym. index      0
 Hessian index           0
 End of optimization    yes 


           :::::::::::::::::::::::::::::::::::::::::::::::::::::::::::
           ::::::::::::::: Optimization Control Center :::::::::::::::
           :::::::::::::::::::::::::::::::::::::::::::::::::::::::::::



                               Final geometry (au)
                               -------------------

 H1  _1     0.0000000000           -1.5020358124            1.0290630951
 H1  _2     0.0000000000            1.5020358124            1.0290630951
 O          0.0000000000            0.0000000000           -0.0365672701





                             Optimization information
                             ------------------------

 Iteration number               :       4
 End of optimization            :       T 
 Energy at this geometry is     :     -76.114211945655
 Energy change from last geom.  :      -0.000000035218
 Predicted change               :      -0.000000030104
 Ratio, actual/predicted change :       1.169872950347
 Norm of gradient               :       0.000001381527
 Norm of step                   :       0.000001320845
 Updated trust radius           :       0.500000000000
 Total effective Hessian index  :       0




          <<<<<<<<<<<<<<<<<<<<<<<<<<<<<<<<<<<<<<<<<<<<<<<<<<<<<<<<<<<<<<
          <<<<<<<<<<<<<<<<<<<<  End of Optimization <<<<<<<<<<<<<<<<<<<<
          <<<<<<<<<<<<<<<<<<<<<<<<<<<<<<<<<<<<<<<<<<<<<<<<<<<<<<<<<<<<<<



                              Final geometry (bohr)
                              ---------------------

 H1  _1     0.0000000000           -1.5020358124            1.0290630951
 H1  _2     0.0000000000            1.5020358124            1.0290630951
 O          0.0000000000            0.0000000000           -0.0365672701





                      Final geometry (xyz format; angstrom)
                      -------------------------------------

3

H1       0.0000000000           -0.7948431217            0.5445567384
H1       0.0000000000            0.7948431217            0.5445567384
O        0.0000000000            0.0000000000           -0.0193505660



@ Iter     Energy        Change       GradNorm  Index   StepLen    TrustRad #Rej
@ ------------------------------------------------------------------------------
@   0      -76.111478     0.000000     0.047526    0    0.116761*   0.500000   0 
@   1      -76.113554    -0.002076     0.025793    0    0.094978*   0.500000   0 
@   2      -76.114211    -0.000657     0.000779    0    0.003986*   0.500000   0 
@   3      -76.114212    -0.000001     0.000146    0    0.000809*   0.500000   0 
@   4      -76.114212    -0.000000     0.000001    0    0.000001*   0.500000   0 

@  *) Newton step taken.


   Interatomic separations (in Angstrom):
   --------------------------------------

            H1  _1      H1  _2      O     
            ------      ------      ------
 H1  _1:    0.000000
 H1  _2:    1.589686    0.000000
 O     :    0.974560    0.974560    0.000000


  Max    interatomic separation is    1.5897 Angstrom (    3.0041 Bohr)
  between atoms    2 and    1, "H1  _2" and "H1  _1".

  Min HX interatomic separation is    0.9746 Angstrom (    1.8417 Bohr)


  Bond distances (Angstrom):
  --------------------------

                  atom 1     atom 2       distance
                  ------     ------       --------
  bond distance:  O          H1  _1       0.974560
  bond distance:  O          H1  _2       0.974560


  Bond angles (degrees):
  ----------------------

                  atom 1     atom 2     atom 3         angle
                  ------     ------     ------         -----
  bond angle:     H1  _1     O          H1  _2       109.292



@ Geometry converged in  5 iterations!

@ Energy at final geometry is       :     -76.114212 a.u.
@ Energy change during optimization :      -0.002734 a.u.
@                                             -7.178 kJ/mol

  Total CPU  time used in DALTON:   1.11 seconds
  Total wall time used in DALTON:   3.17 seconds

 
     Date and time (Linux)  : Thu May 19 15:08:25 2022
     Host name              : fe-ac-02.escience.sdu.dk                
