

     ************************************************************************
     *************** Dalton - An Electronic Structure Program ***************
     ************************************************************************

    This is output from DALTON release Dalton2021.alpha (2021)
         ( Web site: http://daltonprogram.org )

   ----------------------------------------------------------------------------

    NOTE:
     
    Dalton is an experimental code for the evaluation of molecular
    properties using (MC)SCF, DFT, CI, and CC wave functions.
    The authors accept no responsibility for the performance of
    the code or for the correctness of the results.
     
    The code (in whole or part) is provided under a licence and
    is not to be reproduced for further distribution without
    the written permission of the authors or their representatives.
     
    See the home page "http://daltonprogram.org" for further information.
     
    If results obtained with this code are published,
    the appropriate citations would be both of:
     
       K. Aidas, C. Angeli, K. L. Bak, V. Bakken,
       R. Bast, L. Boman, O. Christiansen, R. Cimiraglia,
       S. Coriani, P. Dahle, E. K. Dalskov, U. Ekstroem,
       T. Enevoldsen, J. J. Eriksen, P. Ettenhuber, B. Fernandez,
       L. Ferrighi, H. Fliegl, L. Frediani, K. Hald, A. Halkier,
       C. Haettig, H. Heiberg, T. Helgaker, A. C. Hennum,
       H. Hettema, E. Hjertenaes, S. Hoest, I.-M. Hoeyvik,
       M. F. Iozzi, B. Jansik, H. J. Aa. Jensen, D. Jonsson,
       P. Joergensen, J. Kauczor, S. Kirpekar,
       T. Kjaergaard, W. Klopper, S. Knecht, R. Kobayashi, H. Koch,
       J. Kongsted, A. Krapp, K. Kristensen, A. Ligabue,
       O. B. Lutnaes, J. I. Melo, K. V. Mikkelsen, R. H. Myhre,
       C. Neiss, C. B. Nielsen, P. Norman, J. Olsen,
       J. M. H. Olsen, A. Osted, M. J. Packer, F. Pawlowski,
       T. B. Pedersen, P. F. Provasi, S. Reine, Z. Rinkevicius,
       T. A. Ruden, K. Ruud, V. Rybkin, P. Salek, C. C. M. Samson,
       A. Sanchez de Meras, T. Saue, S. P. A. Sauer,
       B. Schimmelpfennig, K. Sneskov, A. H. Steindal,
       K. O. Sylvester-Hvid, P. R. Taylor, A. M. Teale,
       E. I. Tellgren, D. P. Tew, A. J. Thorvaldsen, L. Thoegersen,
       O. Vahtras, M. A. Watson, D. J. D. Wilson, M. Ziolkowski
       and H. Agren,
       "The Dalton quantum chemistry program system",
       WIREs Comput. Mol. Sci. 2014, 4:269–284 (doi: 10.1002/wcms.1172)
     
    and
     
       Dalton, a molecular electronic structure program,
       Release Dalton2021.alpha (2021), see http://daltonprogram.org
   ----------------------------------------------------------------------------

    Authors in alphabetical order (Major contribution(s) in parenthesis):

  Kestutis Aidas,           Vilnius University,           Lithuania   (QM/MM)
  Celestino Angeli,         University of Ferrara,        Italy       (NEVPT2)
  Juan J. Aucar,            Northeast National University,Argentina   (LRESC, Relativistic Effects on EFG)
  Keld L. Bak,              UNI-C,                        Denmark     (AOSOPPA, non-adiabatic coupling, magnetic properties)
  Vebjoern Bakken,          University of Oslo,           Norway      (DALTON; geometry optimizer, symmetry detection)
  Radovan Bast,             UiT The Arctic U. of Norway,  Norway      (DALTON installation and execution frameworks)
  Pablo Baudin,             University of Valencia,       Spain       (Cholesky excitation energies)
  Linus Boman,              NTNU,                         Norway      (Cholesky decomposition and subsystems)
  Bruno N. Cabral Tenorio,  Technical Univ. of Denmark,   Denmark     (Lanczos-based CC methods)
  Ove Christiansen,         Aarhus University,            Denmark     (CC module)
  Renzo Cimiraglia,         University of Ferrara,        Italy       (NEVPT2)
  Sonia Coriani,            Technical Univ. of Denmark,   Denmark     (CC and RESPONS modules)
  Janusz Cukras,            University of Warsaw,         Poland      (MChD in RESPONS)
  Paal Dahle,               University of Oslo,           Norway      (Parallelization)
  Erik K. Dalskov,          UNI-C,                        Denmark     (SOPPA)
  Thomas Enevoldsen,        Univ. of Southern Denmark,    Denmark     (SOPPA)
  Janus J. Eriksen,         Aarhus University,            Denmark     (Polarizable embedding, TDA)
  Rasmus Faber,             Technical Univ. of Denmark,   Denmark     (Vib.avg. NMR w. SOPPA, parallel AO-SOPPA, CVS-CC and EOMCC)
  Tobias Fahleson,          KTH Stockholm,                Sweden      (Damped cubic response)
  Berta Fernandez,          U. of Santiago de Compostela, Spain       (Doublet spin, ESR in RESPONS)
  Lara Ferrighi,            Aarhus University,            Denmark     (PCM Cubic response)
  Heike Fliegl,             University of Oslo,           Norway      (CCSD(R12))
  Luca Frediani,            UiT The Arctic U. of Norway,  Norway      (PCM)
  Emmanuel Fromager,        Univ. Strasbourg,             France      (MC-srDFT)
  Bin Gao,                  UiT The Arctic U. of Norway,  Norway      (Gen1Int library)
  Andre S. P. Gomes,        CNRS/Universite de Lille,     France      (Frozen density embedding)
  Christof Haettig,         Ruhr-University Bochum,       Germany     (CC module)
  Kasper Hald,              Aarhus University,            Denmark     (CC module)
  Asger Halkier,            Aarhus University,            Denmark     (CC module)
  Frederik Beyer Hansen,    University of Copenhagen,     Denmark     (Parallel AO-SOPPA)
  Erik D. Hedegaard,        Univ. of Southern Denmark,    Denmark     (Polarizable embedding, QM/MM, and MC-srDFT)
  Hanne Heiberg,            University of Oslo,           Norway      (Geometry analysis, selected one-electron integrals)
  Trygve Helgaker,          University of Oslo,           Norway      (DALTON; ABACUS, ERI, DFT modules, London, and much more)
  Alf Christian Hennum,     University of Oslo,           Norway      (Parity violation)
  Hinne Hettema,            University of Auckland,       New Zealand (Quadratic response in RESPONS; SIRIUS supersymmetry)
  Eirik Hjertenaes,         NTNU,                         Norway      (Cholesky decomposition)
  Pi A. B. Haase,           University of Copenhagen,     Denmark     (Triplet AO-SOPPA)
  Maria Francesca Iozzi,    University of Oslo,           Norway      (RPA)
  Christoph Jacob           TU Braunschweig               Germany     (Frozen density embedding)
  Brano Jansik              Technical Univ. of Ostrava    Czech Rep.  (DFT cubic response)
  Hans Joergen Aa. Jensen,  Univ. of Southern Denmark,    Denmark     (DALTON; SIRIUS, RESPONS, ABACUS, MC-srDFT, and much more)
  Dan Jonsson,              UiT The Arctic U. of Norway,  Norway      (Cubic response in RESPONS module)
  Poul Joergensen,          Aarhus University,            Denmark     (RESPONS, ABACUS, and CC modules)
  Maciej Kaminski,          University of Warsaw,         Poland      (CPPh in RESPONS)
  Joanna Kauczor,           Linkoeping University,        Sweden      (Complex polarization propagator (CPP) module)
  Sheela Kirpekar,          Univ. of Southern Denmark,    Denmark     (Mass-velocity & Darwin integrals)
  Erik Kjellgren,           Univ. of Southern Denmark,    Denmark     (MC-srDFT)
  Wim Klopper,              KIT Karlsruhe,                Germany     (R12 code in CC, SIRIUS, and ABACUS modules)
  Stefan Knecht,            ETH Zurich,                   Switzerland (Parallel CI and MCSCF, MC-srDFT)
  Rika Kobayashi,           Australian National Univ.,    Australia   (DIIS in CC, London in MCSCF)
  Henrik Koch,              NTNU,                         Norway      (CC module, Cholesky decomposition)
  Jacob Kongsted,           Univ. of Southern Denmark,    Denmark     (Polarizable embedding, polarizable density embedding, QM/MM)
  Andrea Ligabue,           University of Modena,         Italy       (CTOCD, AOSOPPA)
  Nanna H. List             Univ. of Southern Denmark,    Denmark     (Polarizable embedding)
  Ola B. Lutnaes,           University of Oslo,           Norway      (DFT Hessian)
  Juan I. Melo,             University of Buenos Aires,   Argentina   (LRESC, Relativistic Effects on NMR Shieldings)
  Kurt V. Mikkelsen,        University of Copenhagen,     Denmark     (MC-SCRF and QM/MM)
  Rolf H. Myhre,            NTNU,                         Norway      (Subsystems and CC3)
  Christian Neiss,          Univ. Erlangen-Nuernberg,     Germany     (CCSD(R12))
  Christian B. Nielsen,     University of Copenhagen,     Denmark     (QM/MM)
  Patrick Norman,           KTH Stockholm,                Sweden      (Cubic response and complex frequency response in RESPONS)
  Jeppe Olsen,              Aarhus University,            Denmark     (SIRIUS CI/density modules)
  Jogvan Magnus H. Olsen,   Aarhus University,            Denmark     (Polarizable embedding and polarizable density embedding)
  Anders Osted,             Copenhagen University,        Denmark     (QM/MM)
  Martin J. Packer,         University of Sheffield,      UK          (SOPPA)
  Filip Pawlowski,          Kazimierz Wielki University,  Poland      (CC3)
  Morten N. Pedersen,       Univ. of Southern Denmark,    Denmark     (Polarizable embedding)
  Thomas B. Pedersen,       University of Oslo,           Norway      (Cholesky decomposition)
  Patricio F. Provasi,      University of Northeastern,   Argentina   (Analysis of coupling constants in localized orbitals)
  Peter Reinholdt,          Univ. of Southern Denmark,    Denmark     (Polarizable embedding and polarizable density embedding)
  Zilvinas Rinkevicius,     KTH Stockholm,                Sweden      (open-shell DFT, ESR)
  Elias Rudberg,            KTH Stockholm,                Sweden      (DFT grid and basis info)
  Torgeir A. Ruden,         University of Oslo,           Norway      (Numerical derivatives in ABACUS)
  Kenneth Ruud,             UiT The Arctic U. of Norway,  Norway      (DALTON; ABACUS magnetic properties and much more)
  Pawel Salek,              KTH Stockholm,                Sweden      (DALTON; DFT code)
  Claire C. M. Samson       University of Karlsruhe       Germany     (Boys localization, r12 integrals in ERI)
  Alfredo Sanchez de Meras, University of Valencia,       Spain       (CC module, Cholesky decomposition)
  Trond Saue,               Paul Sabatier University,     France      (direct Fock matrix construction)
  Stephan P. A. Sauer,      University of Copenhagen,     Denmark     (SOPPA(CCSD), SOPPA prop., AOSOPPA, vibrational g-factors)
  Bernd Schimmelpfennig,    Forschungszentrum Karlsruhe,  Germany     (AMFI module)
  Anna K. Schnack-Petersen, University of Copenhagen,     Denmark     (RPA(D) and HRPA(D) properties in AOSOPPA)
  Kristian Sneskov,         Aarhus University,            Denmark     (Polarizable embedding, QM/MM)
  Arnfinn H. Steindal,      UiT The Arctic U. of Norway,  Norway      (parallel QM/MM, polarizable embedding)
  Casper Steinmann,         Aalborg University,           Denmark     (QFIT, polarizable embedding)
  K. O. Sylvester-Hvid,     University of Copenhagen,     Denmark     (MC-SCRF)
  Peter R. Taylor,          VLSCI/Univ. of Melbourne,     Australia   (Symmetry handling ABACUS, integral transformation)
  Andrew M. Teale,          University of Nottingham,     England     (DFT-AC, DFT-D)
  David P. Tew,             University of Bristol,        England     (CCSD(R12))
  Julien Toulouse,          Sorbonne Univ.,               France      (MC-srDFT)
  Olav Vahtras,             KTH Stockholm,                Sweden      (Triplet response, spin-orbit, ESR, TDDFT, open-shell DFT)
  Lucas Visscher,           Vrije Universiteit Amsterdam, Netherlands (Frozen density embedding)
  David J. Wilson,          La Trobe University,          Australia   (DFT Hessian and DFT magnetizabilities)
  Luna Zamok,               University of Copenhagen,     Denmark     (Block Lanczos RPA solver in SOPPA module)
  Hans Agren,               KTH Stockholm,                Sweden      (SIRIUS module, RESPONS, MC-SCRF solvation)
 --------------------------------------------------------------------------------

     Date and time (Linux)  : Wed May  4 11:43:18 2022
     Host name              : node631                                 

 * Work memory size             :   256000000 =  1.907 gigabytes.

 * Directories for basis set searches:
   1) /home/ronanglee/data/fortran_dalton
   2) /home/ronanglee/fortran_dalton/dalton/build/basis


Compilation information
-----------------------

 Who compiled             | ronanglee
 Host                     | sunray
 System                   | Linux-3.16.0-4-amd64
 CMake generator          | Unix Makefiles
 Processor                | x86_64
 64-bit integers          | OFF
 MPI                      | OFF
 Fortran compiler         | /usr/bin/gfortran
 Fortran compiler version | GNU Fortran (Debian 4.9.2-10+deb8u2) 4.9.2
 C compiler               | /usr/bin/gcc
 C compiler version       | gcc (Debian 4.9.2-10+deb8u2) 4.9.2
 C++ compiler             | /usr/bin/g++
 C++ compiler version     | g++ (Debian 4.9.2-10+deb8u2) 4.9.2
 BLAS                     | /opt/intel/composer_xe_2013.1.117/mkl/lib/intel64/
                          | libmkl_gf_lp64.so;/opt/intel/composer_xe_2013.1.11
                          | 7/mkl/lib/intel64/libmkl_sequential.so;/opt/intel/
                          | composer_xe_2013.1.117/mkl/lib/intel64/libmkl_core
                          | .so;/usr/lib/x86_64-linux-gnu/libpthread.so;/usr/l
                          | ib/x86_64-linux-gnu/libm.so
 LAPACK                   | /opt/intel/composer_xe_2013.1.117/mkl/lib/intel64/
                          | libmkl_lapack95_lp64.a;/opt/intel/composer_xe_2013
                          | .1.117/mkl/lib/intel64/libmkl_gf_lp64.so
 Static linking           | OFF
 Last Git revision        | 4d97bde6aed1d62de9b1a4e5da2f9a15817648bb
 Git branch               | master
 Configuration time       | 2022-05-04 11:42:36.367712


   Content of the .dal input file
 ----------------------------------

**DALTON INPUT
.RUN PROPERTIES
**WAVE FUNCTIONS
.HF
**PROPERTIES
.SPIN-S
*SPIN-S
.SOCVIR
.ABUNDA
0.010
**END OF DALTON INPUT


   Content of the .mol file
 ----------------------------

BASIS
6-31G
water using the 6-31G** basis
Using automatic symmetry detection.
Atomtypes=2 Generators=0
Charge=8.0 Atoms=1
O .0000000000 -.2249058930 .0000000000
Charge=1.0 Atoms=2
H_a 1.4523499293 .8996235720 .0000000000
H_b -1.4523499293 .8996235720 .0000000000


       *******************************************************************
       *********** Output from DALTON general input processing ***********
       *******************************************************************

 --------------------------------------------------------------------------------
   Overall default print level:    0
   Print level for DALTON.STAT:    1

    HERMIT 1- and 2-electron integral sections will be executed
    "Old" integral transformation used (limited to max 255 basis functions)
    Wave function sections will be executed (SIRIUS module)
    Static molecular property section will be executed (ABACUS module)
 --------------------------------------------------------------------------------


   ****************************************************************************
   *************** Output of molecule and basis set information ***************
   ****************************************************************************


    The two title cards from your ".mol" input:
    ------------------------------------------------------------------------
 1: water using the 6-31G** basis                                           
 2: Using automatic symmetry detection.                                     
    ------------------------------------------------------------------------

  Atomic type no.    1
  --------------------
  Nuclear charge:   8.00000
  Number of symmetry independent centers:    1
  Number of basis sets to read;    2
  Basis set file used for this atomic type with Z =   8 :
     "/home/ronanglee/fortran_dalton/dalton/build/basis/6-31G"

  Info about the basis set file: your basis has no documentation.
  Basis set: 6-31G                                                                           

  Atomic type no.    2
  --------------------
  Nuclear charge:   1.00000
  Number of symmetry independent centers:    2
  Number of basis sets to read;    2
  Basis set file used for this atomic type with Z =   1 :
     "/home/ronanglee/fortran_dalton/dalton/build/basis/6-31G"

  Info about the basis set file: your basis has no documentation.
  Basis set: 6-31G                                                                           


                         SYMGRP: Point group information
                         -------------------------------

@    Point group: C1 


                                 Isotopic Masses
                                 ---------------

                           O          15.994915
                           H_a         1.007825
                           H_b         1.007825

                       Total mass:    18.010565 amu
                       Natural abundance:  99.730 %

 Center-of-mass coordinates (a.u.):    0.000000   -0.099054    0.000000
 Center-of-mass coordinates (Angs):    0.000000   -0.052417    0.000000


  Atoms and basis sets
  --------------------

  Number of atom types :    2
  Total number of atoms:    3

  Basis set used is "6-31G" from the basis set library.

  label    atoms   charge   prim   cont     basis
  ----------------------------------------------------------------------
  O           1    8.0000    22     9      [10s4p|3s2p]                                       
  H_          2    1.0000     4     2      [4s|2s]                                            
  ----------------------------------------------------------------------
  total:      3   10.0000    30    13
  ----------------------------------------------------------------------

  Threshold for neglecting AO integrals:  1.00D-12


  Cartesian Coordinates (a.u.)
  ----------------------------

  Total number of coordinates:    9
  O       :     1  x   0.0000000000    2  y  -0.2249058930    3  z   0.0000000000
  H_a     :     4  x   1.4523499293    5  y   0.8996235720    6  z   0.0000000000
  H_b     :     7  x  -1.4523499293    8  y   0.8996235720    9  z   0.0000000000


   Interatomic separations (in Angstrom):
   --------------------------------------

            O           H_a         H_b   
            ------      ------      ------
 O     :    0.000000
 H_a   :    0.972000    0.000000
 H_b   :    0.972000    1.537101    0.000000


  Max    interatomic separation is    1.5371 Angstrom (    2.9047 Bohr)
  between atoms    3 and    2, "H_b   " and "H_a   ".

  Min HX interatomic separation is    0.9720 Angstrom (    1.8368 Bohr)


  Bond distances (Angstrom):
  --------------------------

                  atom 1     atom 2       distance
                  ------     ------       --------
  bond distance:  H_a        O            0.972000
  bond distance:  H_b        O            0.972000


  Bond angles (degrees):
  ----------------------

                  atom 1     atom 2     atom 3         angle
                  ------     ------     ------         -----
  bond angle:     H_a        O          H_b          104.500




 Principal moments of inertia (u*A**2) and principal axes
 --------------------------------------------------------

   IA       0.633890          1.000000    0.000000    0.000000
   IB       1.190584          0.000000    1.000000    0.000000
   IC       1.824473          0.000000    0.000000    1.000000


 Rotational constants
 --------------------

@    The molecule is planar.

               A                   B                   C

         797266.5260         424480.0389         276999.9407 MHz
           26.593949           14.159130            9.239723 cm-1


@  Nuclear repulsion energy :    9.055003146800 Hartree


                     .---------------------------------------.
                     | Starting in Integral Section (HERMIT) |
                     `---------------------------------------'



 ***************************************************************************************
 ****************** Output from **INTEGRALS input processing (HERMIT) ******************
 ***************************************************************************************


 - Using defaults, no **INTEGRALS input found

 Default print level:        1

 Calculation of one- and two-electron Hamiltonian integrals.

 Center of mass  (bohr):      0.000000000000     -0.099054326648      0.000000000000
 Operator center (bohr):      0.000000000000      0.000000000000      0.000000000000
 Gauge origin    (bohr):      0.000000000000      0.000000000000      0.000000000000
 Dipole origin   (bohr):      0.000000000000      0.000000000000      0.000000000000

Calculation of 2-electron integrals are postponed until they are needed.


     ************************************************************************
     ************************** Output from HERINT **************************
     ************************************************************************



                      Nuclear contribution to dipole moments
                      --------------------------------------

                 au               Debye          C m (/(10**-30)

      x      0.00000000         0.00000000         0.00000000
      y      0.00000000         0.00000000         0.00000000
      z      0.00000000         0.00000000         0.00000000


  Total CPU  time used in HERMIT:   0.00 seconds
  Total wall time used in HERMIT:   0.12 seconds


                        .----------------------------------.
                        | End of Integral Section (HERMIT) |
                        `----------------------------------'



                   .--------------------------------------------.
                   | Starting in Wave Function Section (SIRIUS) |
                   `--------------------------------------------'


 *** Output from Huckel module :

     Using EWMO model:          T
     Using EHT  model:          F
     Number of Huckel orbitals each symmetry:    7

 EWMO - Energy Weighted Maximum Overlap - is a Huckel type method,
        which normally is better than Extended Huckel Theory.
 Reference: Linderberg and Ohrn, Propagators in Quantum Chemistry (Wiley, 1973)

 Huckel EWMO eigenvalues for symmetry :  1
          -20.684736      -1.601749      -0.777914      -0.689171      -0.616200
           -0.237251      -0.172878

 **********************************************************************
 *SIRIUS* a direct, restricted step, second order MCSCF program       *
 **********************************************************************

 
     Date and time (Linux)  : Wed May  4 11:43:19 2022
     Host name              : node631                                 

 Title lines from ".mol" input file:
     water using the 6-31G** basis                                           
     Using automatic symmetry detection.                                     

 Print level on unit LUPRI =   2 is   0
 Print level on unit LUW4  =   2 is   5

@    Restricted, closed shell Hartree-Fock calculation.

 Initial molecular orbitals are obtained according to
 ".MOSTART EWMO  " input option

     Wave function specification
     ============================
@    Wave function type        --- HF ---
@    Number of closed shell electrons          10
@    Number of electrons in active shells       0
@    Total charge of the molecule               0

@    Spin multiplicity and 2 M_S                1         0
@    Total number of symmetries                 1 (point group: C1 )
@    Reference state symmetry                   1 (irrep name : A  )

     Orbital specifications
     ======================
@    Abelian symmetry species          All |    1
@                                          |  A  
                                       --- |  ---
@    Occupied SCF orbitals               5 |    5
@    Secondary orbitals                  8 |    8
@    Total number of orbitals           13 |   13
@    Number of basis functions          13 |   13

     Optimization information
     ========================
@    Number of configurations                 1
@    Number of orbital rotations             40
     ------------------------------------------
@    Total number of variables               41

     Maximum number of Fock   iterations      0
     Maximum number of DIIS   iterations     60
     Maximum number of QC-SCF iterations     60
     Threshold for SCF convergence     1.00D-05


 ***********************************************
 ***** DIIS acceleration of SCF iterations *****
 ***********************************************

 C1-DIIS algorithm; max error vectors =    8

 Iter      Total energy        Error norm    Delta(E)  DIIS dim.
 -----------------------------------------------------------------------------

Calculating AOSUPINT

---> (Re)generating AOTWOINT


     ************************************************************************
     ************************** Output from HERINT **************************
     ************************************************************************


 Threshold for neglecting two-electron integrals:  1.00D-12
 HERMIT - Number of two-electron integrals written:        2260 ( 54.0% )
 HERMIT - Megabytes written:                              0.027

     (Precalculated AO two-electron integrals are transformed to P-supermatrix elements.
      Threshold for discarding integrals :  1.00D-12 )
@  1    -75.8501966703        1.23219D+00   -7.59D+01    1
      Virial theorem: -V/T =      2.000449
@    MULPOP   O      -0.60; H_a     0.30; H_b     0.30; 
   1  Level shift: doubly occupied orbital energies shifted by -2.00D-01
 -----------------------------------------------------------------------------
@  2    -75.9729069950        3.32401D-01   -1.23D-01    2
      Virial theorem: -V/T =      2.002422
@    MULPOP   O      -0.71; H_a     0.36; H_b     0.36; 
   2  Level shift: doubly occupied orbital energies shifted by -1.00D-01
 -----------------------------------------------------------------------------
@  3    -75.9830665247        5.74383D-02   -1.02D-02    3
      Virial theorem: -V/T =      1.999958
@    MULPOP   O      -0.78; H_a     0.39; H_b     0.39; 
   3  Level shift: doubly occupied orbital energies shifted by -2.50D-02
 -----------------------------------------------------------------------------
@  4    -75.9833515231        1.92174D-02   -2.85D-04    4
      Virial theorem: -V/T =      2.000833
@    MULPOP   O      -0.79; H_a     0.39; H_b     0.39; 
   4  Level shift: doubly occupied orbital energies shifted by -1.25D-02
 -----------------------------------------------------------------------------
@  5    -75.9833831898        5.66937D-03   -3.17D-05    5
      Virial theorem: -V/T =      2.000497
@    MULPOP   O      -0.79; H_a     0.40; H_b     0.40; 
 -----------------------------------------------------------------------------
@  6    -75.9833877191        1.06222D-03   -4.53D-06    6
      Virial theorem: -V/T =      2.000587
@    MULPOP   O      -0.79; H_a     0.40; H_b     0.40; 
 -----------------------------------------------------------------------------
@  7    -75.9833879329        1.20928D-04   -2.14D-07    7
      Virial theorem: -V/T =      2.000591
@    MULPOP   O      -0.79; H_a     0.40; H_b     0.40; 
 -----------------------------------------------------------------------------
@  8    -75.9833879351        2.06768D-05   -2.23D-09    8
      Virial theorem: -V/T =      2.000592
@    MULPOP   O      -0.79; H_a     0.40; H_b     0.40; 
 -----------------------------------------------------------------------------
@  9    -75.9833879352        2.31150D-06   -5.84D-11    8

@ *** DIIS converged in   9 iterations !
@     Converged SCF energy, gradient:    -75.983387935167    2.31D-06
    - total time used in SIRFCK :              0.00 seconds


 *** SCF orbital energy analysis ***

 Number of electrons        :   10
 Closed shell orbitals      :    5

 Sym       Hartree-Fock orbital energies

1 A     -20.56334197    -1.34862020    -0.70196522    -0.55846376    -0.50060374
          0.20028956     0.29576076     1.05199845     1.16445402     1.16725974
          1.21695934     1.37502053     1.69550235

    E(LUMO) :     0.20028956 au (symmetry 1)
  - E(HOMO) :    -0.50060374 au (symmetry 1)
  ------------------------------------------
    gap     :     0.70089329 au

 --- Writing SIRIFC interface file

--------------------------------------------------------------------------------


     .---------------------------------------------------------------.
     | HF-SCF KT IPs [a.u. & eV], pole strengths, and Dyson orbitals |
     `---------------------------------------------------------------'

     HF-SCF KT symmetry 1 ( A  ) in point group C1  -- 5 principal poles

   ============  ============  ============  ============  ============
      20.563342      1.348620      0.701965      0.558464      0.500604
     559.556999     36.697822     19.101445     15.196572     13.622121
   ------------  ------------  ------------  ------------  ------------
       1.000000      1.000000      1.000000      1.000000      1.000000
   ============  ============  ============  ============  ============
       1.000000      0.000000      0.000000      0.000000      0.000000
       0.000000     -1.000000      0.000000     -0.000000     -0.000000
       0.000000     -0.000000     -1.000000      0.000000      0.000000
      -0.000000     -0.000000      0.000000      1.000000     -0.000000
      -0.000000     -0.000000     -0.000000      0.000000      1.000000
   ============  ============  ============  ============  ============
  

@ Summary of HF-SCF KT ionization potentials [eV] and pole strengths:

@ Symmetry 1 (A  ) :   559.557      36.698      19.101      15.197      13.622
@ Pole strengths   :     1.000       1.000       1.000       1.000       1.000

  === End of HF-SCF KT output ===
--------------------------------------------------------------------------------


 CPU and wall time for SCF :       0.012       0.010


                       .-----------------------------------.
                       | --- Final results from SIRIUS --- |
                       `-----------------------------------'


@    Spin multiplicity:           1
@    Spatial symmetry:            1 ( irrep  A   in C1  )
@    Total charge of molecule:    0

@    Final HF energy:             -75.983387935167                 
@    Nuclear repulsion:             9.055003146800
@    Electronic energy:           -85.038391081967

@    Final gradient norm:           0.000002311501

 
     Date and time (Linux)  : Wed May  4 11:43:19 2022
     Host name              : node631                                 

File label for MO orbitals:   4May22   FOCKDIIS

 (Only coefficients > 0.0100 are printed.)

 Molecular orbitals for symmetry species 1  (A  )
 ------------------------------------------------

    Orbital         1        2        3        4        5        6        7
   1 O   :1s    -0.9958   0.2128  -0.0000  -0.0753   0.0000  -0.0848  -0.0000
   2 O   :1s    -0.0219  -0.4697  -0.0000   0.1802  -0.0000   0.1051  -0.0000
   3 O   :1s     0.0080  -0.4849   0.0000   0.3030  -0.0000   1.1558   0.0000
   4 O   :2px   -0.0000  -0.0000  -0.5035   0.0000  -0.0000   0.0000  -0.3422
   5 O   :2py   -0.0021  -0.1079  -0.0000  -0.5489  -0.0000   0.2363   0.0000
   6 O   :2pz   -0.0000   0.0000   0.0000   0.0000  -0.6421  -0.0000   0.0000
   7 O   :2px   -0.0000  -0.0000  -0.2738   0.0000  -0.0000   0.0000  -0.8181
   8 O   :2py    0.0019  -0.0613  -0.0000  -0.4032  -0.0000   0.4784   0.0000
   9 O   :2pz   -0.0000   0.0000   0.0000   0.0000  -0.5094  -0.0000   0.0000
  10 H_a :1s    -0.0001  -0.1364  -0.2604  -0.1446  -0.0000  -0.0613   0.0463
  11 H_a :1s    -0.0019   0.0075  -0.1269  -0.0842  -0.0000  -0.9809   1.3556
  12 H_b :1s    -0.0001  -0.1364   0.2604  -0.1446   0.0000  -0.0613  -0.0463
  13 H_b :1s    -0.0019   0.0075   0.1269  -0.0842   0.0000  -0.9809  -1.3556

    Orbital         8        9       10       11       12       13
   1 O   :1s    -0.0000   0.0000   0.0568   0.0638   0.0000  -0.0546
   2 O   :1s     0.0000  -0.0000  -0.2949  -0.4281  -0.0000   1.6665
   3 O   :1s    -0.0000  -0.0000   0.2040   0.0834   0.0000  -2.7111
   4 O   :2px   -0.1237  -0.0000  -0.0000  -0.0000   1.0303   0.0000
   5 O   :2py    0.0000  -0.0000  -0.5932   0.7807  -0.0000   0.2111
   6 O   :2pz    0.0000  -0.9611   0.0000   0.0000  -0.0000  -0.0000
   7 O   :2px   -0.6855  -0.0000   0.0000   0.0000  -1.5517  -0.0000
   8 O   :2py   -0.0000  -0.0000   0.1210  -1.1842  -0.0000  -0.8632
   9 O   :2pz    0.0000   1.0376   0.0000   0.0000  -0.0000  -0.0000
  10 H_a :1s     0.9745  -0.0000   0.8819   0.4417  -0.0622   0.4666
  11 H_a :1s    -0.5362  -0.0000  -0.5642  -0.0298   0.8749   0.5941
  12 H_b :1s    -0.9745   0.0000   0.8819   0.4417   0.0622   0.4666
  13 H_b :1s     0.5362   0.0000  -0.5642  -0.0298  -0.8749   0.5941

  Total CPU  time used in SIRIUS :   0.02 seconds
  Total wall time used in SIRIUS :   0.51 seconds

 
     Date and time (Linux)  : Wed May  4 11:43:19 2022
     Host name              : node631                                 


                     .---------------------------------------.
                     | End of Wave Function Section (SIRIUS) |
                     `---------------------------------------'



        *****************************************************************
        ******** Output from **PROPE input processing for ABACUS ********
        *****************************************************************



 The following molecular properties will be calculated in this run:
 ------------------------------------------------------------------

 Default print level:        0

      Nuclear spin-spin coupling constants
      Natural orbital connection is used
      for perturbation dependent basis sets.

@ WARNING - RHF calculations of spin-spin coupling constants are likely to give
@ WARNING - qualitatively incorrect results !!!


 Changes of defaults for SPIN-S:
 -------------------------------

 Spin-spin couplings printed for atoms with abundance greater than :   0.010 %
 Orbital analysis of spin-spin couplings
 Only contributions from one occupied and one virtual  orbital are printed

 Center of mass dipole origin  :    0.000000   -0.099054    0.000000

 Center of mass gauge origin   :    0.000000   -0.099054    0.000000


                 .------------------------------------------------.
                 | Starting in Static Property Section (ABACUS) - |
                 `------------------------------------------------'


 
     Date and time (Linux)  : Wed May  4 11:43:19 2022
     Host name              : node631                                 

No symmetry -> DSO by numerical integration.
 Electrons:  10.0000007( 7.45e-07): DFTDSO time:       0.1 s

 2-el. integral transformation level 4: Total CPU and WALL times (sec)       0.000       0.002

 Sorting integrals to Dirac format: Total CPU and WALL times (sec)       0.000       0.179
    Convergence for "SD 001 x". Last residual and threshold:   0.00006   0.00010;  # trial vectors: 7

               Column   1     Column   2
       1       0.00074123     0.00001180
       5      -0.00231130    -0.00017500
       6      -0.00129620    -0.00009949
       8      -0.00082670    -0.00016449
       9       0.00436802     0.00008610
      13      -0.01876006    -0.00001371
      14       0.08190138     0.00008053
      16       0.02145056    -0.00000634
      18       1.81875784     0.00001413
      19       0.46516976     0.00004279
      23      -1.38001263     0.00000548
      25       0.74045051    -0.00000593
      29      -0.52097739    -0.00002993
      30       0.71372822    -0.00013530
      32       0.11429187     0.00007965
      36      -1.06303442    -0.00002865
    ==== End of matrix output ====
    Convergence for "SD 002 x". Last residual and threshold:   0.00004   0.00010;  # trial vectors: 6

               Column   1     Column   2
       2      -0.00110123     0.00000968
       3      -0.00433925     0.00017764
       7      -0.00050667     0.00004084
      10       0.26021663     0.00004074
      11       0.07407272     0.00006947
      15      -0.21147948    -0.00005882
      17      -1.52988517     0.00005254
      21       1.03213294     0.00006130
      22      -0.83100613     0.00002431
      24      -0.18694899     0.00010384
      26       2.22457350     0.00000263
      27       0.58962472     0.00000072
      31      -1.36205112    -0.00001693
    ==== End of matrix output ====
    Convergence for "SD 002 y". Last residual and threshold:   0.00009   0.00010;  # trial vectors: 7

               Column   1     Column   2
       1      -0.00064100    -0.00008267
       5       0.00043761    -0.00011182
       6       0.00009546    -0.00042190
       8      -0.00129176    -0.00035704
       9      -0.20552844     0.00001159
      13       0.19159632    -0.00007417
      14      -0.18833422    -0.00001704
      16      -0.02917644     0.00008660
      18      -0.67698909     0.00005102
      19      -0.10740615     0.00003892
      23       0.63041733     0.00000719
      25      -2.09619528    -0.00000709
      29       1.31529566    -0.00003149
      30      -1.36886291     0.00001392
      32      -0.28277313    -0.00001814
      36      -1.07227769    -0.00008407
    ==== End of matrix output ====
    Convergence for "SD 003 x". Last residual and threshold:   0.00000   0.00010;  # trial vectors: 4

               Column   1     Column   2
      20       1.17123531    -0.00000000
      34       2.49962149    -0.00000000
      35       0.49989249    -0.00000000
      39      -1.61270714    -0.00000000
    ==== End of matrix output ====
    Convergence for "SD 003 y". Last residual and threshold:   0.00003   0.00010;  # trial vectors: 5

               Column   1     Column   2
       4       0.00061574     0.00015821
      12       0.25390349    -0.00004647
      28       1.35235476     0.00000501
      33      -2.24818677     0.00000414
      37       1.26918900     0.00002378
      38      -1.22769727     0.00001983
      40      -0.30990131    -0.00002713
    ==== End of matrix output ====
    Convergence for "SD 003 z". Last residual and threshold:   0.00001   0.00010;  # trial vectors: 8

               Column   1     Column   2
       1      -0.00010093     0.00001523
       5       0.00186995    -0.00003432
       6       0.00119436    -0.00001755
       8       0.00211272     0.00002567
       9       0.20118763     0.00000618
      13      -0.17285036     0.00001103
      14       0.10644204    -0.00000998
      16       0.00773635    -0.00000781
      18      -1.14173778     0.00000393
      19      -0.35774581     0.00000058
      23       0.74959623     0.00000683
      25       1.35574374     0.00000092
      29      -0.79433005    -0.00000526
      30       0.65510719    -0.00000482
      32       0.16849300    -0.00000045
      36       2.13527809    -0.00000037
    ==== End of matrix output ====
    Convergence for "SD 004 x". Last residual and threshold:   0.00004   0.00010;  # trial vectors: 8

               Column   1     Column   2
       1      -0.00038461    -0.00000964
       2       0.00002650     0.00000154
       3      -0.00005471     0.00000137
       5       0.00048179     0.00000645
       6      -0.00028903     0.00000261
       7      -0.00006872     0.00000070
       8      -0.00042328    -0.00000660
       9      -0.07188333    -0.00000039
      10       0.01073877     0.00000168
      11      -0.00796192     0.00000041
      13       0.03752052    -0.00000161
      14      -0.00771281     0.00000263
      15      -0.01794239     0.00000165
      16      -0.02496069    -0.00000129
      17      -0.07412789     0.00000040
      18       0.04984462    -0.00000055
      19       0.00326045     0.00000076
      21       0.04136393     0.00000046
      22      -0.00511157     0.00000008
      23      -0.04857277    -0.00000388
      24      -0.01782524     0.00000028
      25      -0.13485888     0.00000165
      26       0.05063708    -0.00000047
      27       0.00154059     0.00000119
      29       0.04665349     0.00000046
      30      -0.03506283     0.00000027
      31      -0.01875909    -0.00000099
      32      -0.01258954     0.00000137
      36       0.04786366     0.00000230
    ==== End of matrix output ====
    Convergence for "SD 005 x". Last residual and threshold:   0.00005   0.00010;  # trial vectors: 8

               Column   1     Column   2
       1      -0.00041265    -0.00000960
       2       0.00029809     0.00001566
       3       0.00003475     0.00000838
       5       0.00037588    -0.00000093
       6      -0.00000339     0.00001254
       7      -0.00058903    -0.00001221
       8      -0.00062216    -0.00000971
       9      -0.08444608    -0.00000051
      10       0.04319149     0.00000805
      11       0.00275010     0.00000298
      13       0.04290226     0.00000205
      14      -0.00711715     0.00000153
      15      -0.03463466    -0.00000134
      16      -0.04556550     0.00000181
      17      -0.09982366     0.00000158
      18       0.16772115    -0.00000353
      19       0.03538688     0.00000023
      21       0.03381822     0.00000033
      22      -0.00979450     0.00000052
      23      -0.09630743     0.00000114
      24      -0.03571853    -0.00000061
      25      -0.13750900    -0.00000144
      26       0.03875477     0.00000014
      27       0.01117830    -0.00000077
      29       0.06981532     0.00000304
      30      -0.05867965    -0.00000062
      31      -0.01988809     0.00000062
      32      -0.02291595     0.00000083
      36       0.06927400    -0.00000072
    ==== End of matrix output ====
    Convergence for "SD 005 y". Last residual and threshold:   0.00006   0.00010;  # trial vectors: 8

               Column   1     Column   2
       1       0.00006615     0.00000113
       2       0.00015507     0.00000324
       3       0.00006876    -0.00000081
       5      -0.00017218     0.00000243
       6       0.00025225    -0.00000426
       7      -0.00029077    -0.00000030
       8      -0.00003503     0.00000284
       9       0.01126514    -0.00000017
      10       0.01870904     0.00000189
      11       0.00990381    -0.00000008
      13      -0.00712467     0.00000434
      14       0.00194148    -0.00000111
      15      -0.00481847    -0.00000166
      16      -0.00748024    -0.00000109
      17       0.01068810     0.00000142
      18       0.06815778    -0.00000013
      19       0.02232640     0.00000030
      21      -0.01597070     0.00000081
      22      -0.00540202     0.00000045
      23      -0.01464668     0.00000094
      24      -0.00910677    -0.00000329
      25       0.02817882     0.00000007
      26      -0.02438113    -0.00000023
      27      -0.00008021    -0.00000257
      29       0.00350704    -0.00000077
      30       0.00029089     0.00000155
      31       0.00163156     0.00000074
      32      -0.00090627    -0.00000044
      36       0.01290947    -0.00000276
    ==== End of matrix output ====
    Convergence for "SD 006 x". Last residual and threshold:   0.00000   0.00010;  # trial vectors: 7

               Column   1     Column   2
       4      -0.00033710    -0.00000003
      12      -0.00857520    -0.00000014
      20      -0.00744542    -0.00000044
      28       0.00171625    -0.00000006
      33       0.06825149    -0.00000010
      34      -0.02575924     0.00000002
      35       0.01276433     0.00000027
      37      -0.01166907    -0.00000005
      38      -0.00380838     0.00000013
      39       0.00666039    -0.00000006
      40      -0.00122649     0.00000031
    ==== End of matrix output ====
    Convergence for "SD 006 y". Last residual and threshold:   0.00000   0.00010;  # trial vectors: 7

               Column   1     Column   2
       4      -0.00025368    -0.00000002
      12      -0.00610903     0.00000005
      20      -0.00259094    -0.00000014
      28      -0.00584461     0.00000007
      33       0.03552229    -0.00000005
      34      -0.03524161    -0.00000006
      35      -0.00203476    -0.00000005
      37      -0.00296874    -0.00000022
      38       0.00799257    -0.00000007
      39       0.00081431    -0.00000027
      40       0.00263999    -0.00000001
    ==== End of matrix output ====
    Convergence for "SD 006 z". Last residual and threshold:   0.00004   0.00010;  # trial vectors: 8

               Column   1     Column   2
       1       0.00031845     0.00000748
       2      -0.00018162    -0.00000880
       3      -0.00001408    -0.00000314
       5      -0.00030954    -0.00000246
       6       0.00003665    -0.00000827
       7       0.00035959     0.00000804
       8       0.00045831     0.00000396
       9       0.06061805     0.00000014
      10      -0.02944846    -0.00000644
      11      -0.00194214    -0.00000189
      13      -0.03039562    -0.00000117
      14       0.00577143    -0.00000128
      15       0.02276093     0.00000012
      16       0.03244051    -0.00000151
      17       0.06344044    -0.00000087
      18      -0.11800098     0.00000302
      19      -0.02558646     0.00000007
      21      -0.02539324    -0.00000044
      22       0.01051364    -0.00000030
      23       0.06321839    -0.00000163
      24       0.02693164    -0.00000010
      25       0.10668254     0.00000161
      26      -0.02625626     0.00000049
      27      -0.00146071     0.00000024
      29      -0.05016134    -0.00000223
      30       0.03477298     0.00000211
      31       0.01712764     0.00000051
      32       0.01349603    -0.00000008
      36      -0.06077299     0.00000056
    ==== End of matrix output ====
    Convergence for "SD 007 x". Last residual and threshold:   0.00004   0.00010;  # trial vectors: 8

               Column   1     Column   2
       1      -0.00038461    -0.00000964
       2      -0.00002650    -0.00000154
       3       0.00005471    -0.00000137
       5       0.00048179     0.00000645
       6      -0.00028903     0.00000261
       7       0.00006872    -0.00000070
       8      -0.00042328    -0.00000660
       9      -0.07188333    -0.00000039
      10      -0.01073877    -0.00000168
      11       0.00796192    -0.00000041
      13       0.03752052    -0.00000161
      14      -0.00771281     0.00000263
      15       0.01794239    -0.00000165
      16      -0.02496069    -0.00000129
      17       0.07412789    -0.00000040
      18       0.04984462    -0.00000055
      19       0.00326045     0.00000076
      21      -0.04136393    -0.00000046
      22       0.00511157    -0.00000008
      23      -0.04857277    -0.00000388
      24       0.01782524    -0.00000028
      25      -0.13485888     0.00000165
      26      -0.05063708     0.00000047
      27      -0.00154059    -0.00000119
      29       0.04665349     0.00000046
      30      -0.03506283     0.00000027
      31       0.01875909     0.00000099
      32      -0.01258954     0.00000137
      36       0.04786366     0.00000230
    ==== End of matrix output ====
    Convergence for "SD 008 x". Last residual and threshold:   0.00005   0.00010;  # trial vectors: 8

               Column   1     Column   2
       1       0.00041265     0.00000960
       2       0.00029809     0.00001566
       3       0.00003475     0.00000838
       5      -0.00037588     0.00000093
       6       0.00000339    -0.00001254
       7      -0.00058903    -0.00001221
       8       0.00062216     0.00000971
       9       0.08444608     0.00000051
      10       0.04319149     0.00000805
      11       0.00275010     0.00000298
      13      -0.04290226    -0.00000205
      14       0.00711715    -0.00000153
      15      -0.03463466    -0.00000134
      16       0.04556550    -0.00000181
      17      -0.09982366     0.00000158
      18      -0.16772115     0.00000353
      19      -0.03538688    -0.00000023
      21       0.03381822     0.00000033
      22      -0.00979450     0.00000052
      23       0.09630743    -0.00000114
      24      -0.03571853    -0.00000061
      25       0.13750900     0.00000144
      26       0.03875477     0.00000014
      27       0.01117830    -0.00000077
      29      -0.06981532    -0.00000304
      30       0.05867965     0.00000062
      31      -0.01988809     0.00000062
      32       0.02291595    -0.00000083
      36      -0.06927400     0.00000072
    ==== End of matrix output ====
    Convergence for "SD 008 y". Last residual and threshold:   0.00006   0.00010;  # trial vectors: 8

               Column   1     Column   2
       1       0.00006615     0.00000113
       2      -0.00015507    -0.00000324
       3      -0.00006876     0.00000081
       5      -0.00017218     0.00000243
       6       0.00025225    -0.00000426
       7       0.00029077     0.00000030
       8      -0.00003503     0.00000284
       9       0.01126514    -0.00000017
      10      -0.01870904    -0.00000189
      11      -0.00990381     0.00000008
      13      -0.00712467     0.00000434
      14       0.00194148    -0.00000111
      15       0.00481847     0.00000166
      16      -0.00748024    -0.00000109
      17      -0.01068810    -0.00000142
      18       0.06815778    -0.00000013
      19       0.02232640     0.00000030
      21       0.01597070    -0.00000081
      22       0.00540202    -0.00000045
      23      -0.01464668     0.00000094
      24       0.00910677     0.00000329
      25       0.02817882     0.00000007
      26       0.02438113     0.00000023
      27       0.00008021     0.00000257
      29       0.00350704    -0.00000077
      30       0.00029089     0.00000155
      31      -0.00163156    -0.00000074
      32      -0.00090627    -0.00000044
      36       0.01290947    -0.00000276
    ==== End of matrix output ====
    Convergence for "SD 009 x". Last residual and threshold:   0.00000   0.00010;  # trial vectors: 7

               Column   1     Column   2
       4       0.00033710     0.00000003
      12       0.00857520     0.00000014
      20      -0.00744542    -0.00000044
      28      -0.00171625     0.00000006
      33      -0.06825149     0.00000010
      34      -0.02575924     0.00000002
      35       0.01276433     0.00000027
      37       0.01166907     0.00000005
      38       0.00380838    -0.00000013
      39       0.00666039    -0.00000006
      40       0.00122649    -0.00000031
    ==== End of matrix output ====
    Convergence for "SD 009 y". Last residual and threshold:   0.00000   0.00010;  # trial vectors: 7

               Column   1     Column   2
       4      -0.00025368    -0.00000002
      12      -0.00610903     0.00000005
      20       0.00259094     0.00000014
      28      -0.00584461     0.00000007
      33       0.03552229    -0.00000005
      34       0.03524161     0.00000006
      35       0.00203476     0.00000005
      37      -0.00296874    -0.00000022
      38       0.00799257    -0.00000007
      39      -0.00081431     0.00000027
      40       0.00263999    -0.00000001
    ==== End of matrix output ====
    Convergence for "SD 009 z". Last residual and threshold:   0.00004   0.00010;  # trial vectors: 8

               Column   1     Column   2
       1       0.00031845     0.00000748
       2       0.00018162     0.00000880
       3       0.00001408     0.00000314
       5      -0.00030954    -0.00000246
       6       0.00003665    -0.00000827
       7      -0.00035959    -0.00000804
       8       0.00045831     0.00000396
       9       0.06061805     0.00000014
      10       0.02944846     0.00000644
      11       0.00194214     0.00000189
      13      -0.03039562    -0.00000117
      14       0.00577143    -0.00000128
      15      -0.02276093    -0.00000012
      16       0.03244051    -0.00000151
      17      -0.06344044     0.00000087
      18      -0.11800098     0.00000302
      19      -0.02558646     0.00000007
      21       0.02539324     0.00000044
      22      -0.01051364     0.00000030
      23       0.06321839    -0.00000163
      24      -0.02693164     0.00000010
      25       0.10668254     0.00000161
      26       0.02625626    -0.00000049
      27       0.00146071    -0.00000024
      29      -0.05016134    -0.00000223
      30       0.03477298     0.00000211
      31      -0.01712764    -0.00000051
      32       0.01349603    -0.00000008
      36      -0.06077299     0.00000056
    ==== End of matrix output ====
    Convergence for "FC O 001". Last residual and threshold:   0.00006   0.00010;  # trial vectors: 8

               Column   1     Column   2
       1       2.28321902    -0.00141081
       5      -1.72632190     0.00070128
       6      -1.99499321    -0.00135454
       8       3.13411651     0.00049869
       9      -9.70161959     0.00010270
      13       4.62108583    -0.00012745
      14       4.90373898     0.00026738
      16      -6.71052340     0.00001636
      18       2.01440755    -0.00004284
      19       0.59201411     0.00039344
      23      -1.62331947    -0.00008865
      25       8.43307710     0.00009865
      29      -1.68875272     0.00018482
      30      -3.66987816    -0.00001917
      32       3.53889884     0.00005372
      36       2.20869671    -0.00023557
    ==== End of matrix output ====
    Convergence for "FC H_002". Last residual and threshold:   0.00010   0.00010;  # trial vectors: 7

               Column   1     Column   2
       1       0.00147390     0.00012129
       2      -0.00009223    -0.00014365
       3       0.00009187     0.00021977
       5      -0.00148925     0.00024027
       6      -0.00112610     0.00019787
       7       0.00038948    -0.00000544
       8       0.00247015     0.00007479
       9       0.32830234     0.00000780
      10      -0.23542581    -0.00005340
      11      -0.50500311     0.00002187
      13      -0.59351514    -0.00022154
      14      -0.14714661     0.00001168
      15       0.18682158    -0.00005356
      16      -0.03727571     0.00012273
      17       0.80889000     0.00000768
      18      -0.86664525     0.00007716
      19      -1.26276547     0.00003558
      21      -1.18682147     0.00007353
      22      -0.31664857    -0.00007920
      23       0.41619832    -0.00005866
      24      -0.14877859    -0.00002514
      25       0.77887182     0.00006200
      26      -0.60314064    -0.00006220
      27      -0.80158195     0.00002673
      29      -0.84464083     0.00000018
      30      -0.14124947    -0.00011321
      31       0.24199627    -0.00001168
      32      -0.08796357     0.00001340
      36      -0.07456443     0.00009203
    ==== End of matrix output ====
    Convergence for "FC H_003". Last residual and threshold:   0.00010   0.00010;  # trial vectors: 7

               Column   1     Column   2
       1       0.00147390     0.00012129
       2       0.00009223     0.00014365
       3      -0.00009187    -0.00021977
       5      -0.00148925     0.00024027
       6      -0.00112610     0.00019787
       7      -0.00038948     0.00000544
       8       0.00247015     0.00007479
       9       0.32830234     0.00000780
      10       0.23542581     0.00005340
      11       0.50500311    -0.00002187
      13      -0.59351514    -0.00022154
      14      -0.14714661     0.00001168
      15      -0.18682158     0.00005356
      16      -0.03727571     0.00012273
      17      -0.80889000    -0.00000768
      18      -0.86664525     0.00007716
      19      -1.26276547     0.00003558
      21       1.18682147    -0.00007353
      22       0.31664857     0.00007920
      23       0.41619832    -0.00005866
      24       0.14877859     0.00002514
      25       0.77887182     0.00006200
      26       0.60314064     0.00006220
      27       0.80158195    -0.00002673
      29      -0.84464083     0.00000018
      30      -0.14124947    -0.00011321
      31      -0.24199627     0.00001168
      32      -0.08796357     0.00001340
      36      -0.07456443     0.00009203
    ==== End of matrix output ====
    Convergence for "PSO 001 ". Last residual and threshold:   0.00080   0.00000;  # trial vectors: 3
    Convergence for "PSO 002 ". Last residual and threshold:   0.00014   0.00000;  # trial vectors: 3
    Convergence for "PSO 003 ". Last residual and threshold:   0.00089   0.00000;  # trial vectors: 3
    Convergence for "PSO 004 ". Last residual and threshold:   0.00114   0.00000;  # trial vectors: 4
    Convergence for "PSO 005 ". Last residual and threshold:   0.00102   0.00000;  # trial vectors: 4
    Convergence for "PSO 006 ". Last residual and threshold:   0.00045   0.00000;  # trial vectors: 5
    Convergence for "PSO 007 ". Last residual and threshold:   0.00114   0.00000;  # trial vectors: 4
    Convergence for "PSO 008 ". Last residual and threshold:   0.00102   0.00000;  # trial vectors: 4
    Convergence for "PSO 009 ". Last residual and threshold:   0.00045   0.00000;  # trial vectors: 5

 Old LUGDT file opened in SOS_J_OCVIR_TR.

 Old LUSOVET file opened in SOS_J_OCVIR_TR.

 Old LUGDI file opened in SOS_J_OCVIR_SN.

 Old LUSOVES file opened in SOS_J_OCVIR_SN.


           +-----------------------------------------------------------+
           ! Contributions to the indirect spin-spin coupling constant !
           +-----------------------------------------------------------+



              Indirect spin-spin-coupling between H_a    and O     :
              ======================================================


  Mass number atom 1:   1          Abundance:   99.985
  Mass number atom 2:  17          Abundance:    0.040


                     DSO part of spin-spin coupling constant
                     ---------------------------------------

          label     I  label     J
      1   -**--**-  1  -**--**-  1      0.0206
      7   -**--**-  2  -**--**-  2      0.1714
     13   -**--**-  3  -**--**-  3      0.2868
     19   -**--**-  4  -**--**-  4     -0.2848
     25   -**--**-  5  -**--**-  5     -0.5211
          TOTAL                         -0.3271


                     PSO part of spin-spin coupling constant
                     ---------------------------------------

   label    A  label    I
  -**--**-  2 -**--**-  1      -0.0013
  -**--**-  3 -**--**-  1      -0.0004
  -**--**-  4 -**--**-  1       0.0039
  -**--**-  7 -**--**-  1      -0.0044
  -**--**-  2 -**--**-  2      -0.0636
  -**--**-  3 -**--**-  2      -0.0263
  -**--**-  4 -**--**-  2       0.2445
  -**--**-  7 -**--**-  2       0.1808
  -**--**-  1 -**--**-  3      -1.4735
  -**--**-  4 -**--**-  3       0.3547
  -**--**-  5 -**--**-  3      -1.1623
  -**--**-  6 -**--**-  3       0.2684
  -**--**-  8 -**--**-  3      -0.1558
  -**--**-  2 -**--**-  4      -1.0124
  -**--**-  3 -**--**-  4       0.1428
  -**--**-  4 -**--**-  4      -0.0179
  -**--**-  7 -**--**-  4      -2.4120
  -**--**-  1 -**--**-  5      -1.0014
  -**--**-  2 -**--**-  5      -1.4117
  -**--**-  3 -**--**-  5       0.1257
  -**--**-  5 -**--**-  5       0.1552
  -**--**-  6 -**--**-  5      -0.3915
  -**--**-  7 -**--**-  5      -2.3596
  -**--**-  8 -**--**-  5      -0.7123
          TOTAL                        -10.7304


                      FC part of spin-spin coupling constant
                      --------------------------------------

   label    A  label    I
  -**--**-  1 -**--**-  1       0.0031
  -**--**-  5 -**--**-  1       0.0198
  -**--**-  6 -**--**-  1       0.0095
  -**--**-  8 -**--**-  1      -0.0121
  -**--**-  1 -**--**-  2     -17.7772
  -**--**-  5 -**--**-  2     -72.3059
  -**--**-  6 -**--**-  2     -31.7159
  -**--**-  8 -**--**-  2      35.1998
  -**--**-  2 -**--**-  3      -5.4018
  -**--**-  3 -**--**-  3     -15.6102
  -**--**-  7 -**--**-  3      -7.9033
  -**--**-  1 -**--**-  4      14.5088
  -**--**-  5 -**--**-  4      24.8097
  -**--**-  6 -**--**-  4      22.2858
  -**--**-  8 -**--**-  4     -17.4292
          TOTAL                        -71.3192


                   SD(+FC) part of spin-spin coupling constant
                   -------------------------------------------

   label    A  label    I
  -**--**-  5 -**--**-  1      -0.0002
  -**--**-  6 -**--**-  1       0.0001
  -**--**-  1 -**--**-  2       0.0194
  -**--**-  2 -**--**-  2       0.1353
  -**--**-  3 -**--**-  2      -0.0069
  -**--**-  4 -**--**-  2      -0.0315
  -**--**-  5 -**--**-  2      -0.0054
  -**--**-  6 -**--**-  2       0.0052
  -**--**-  7 -**--**-  2       0.1612
  -**--**-  8 -**--**-  2       0.0013
  -**--**-  1 -**--**-  3       0.7327
  -**--**-  2 -**--**-  3       0.1552
  -**--**-  3 -**--**-  3      -0.0801
  -**--**-  4 -**--**-  3      -0.1302
  -**--**-  5 -**--**-  3       0.2441
  -**--**-  6 -**--**-  3       0.1691
  -**--**-  7 -**--**-  3       0.7296
  -**--**-  8 -**--**-  3       0.1507
  -**--**-  1 -**--**-  4      -0.1924
  -**--**-  2 -**--**-  4       0.2208
  -**--**-  3 -**--**-  4       0.0095
  -**--**-  4 -**--**-  4      -0.0988
  -**--**-  5 -**--**-  4       0.0986
  -**--**-  6 -**--**-  4      -0.0330
  -**--**-  7 -**--**-  4       0.3612
  -**--**-  8 -**--**-  4       0.0269
  -**--**-  1 -**--**-  5      -0.3421
  -**--**-  2 -**--**-  5      -0.3921
  -**--**-  3 -**--**-  5       0.1291
  -**--**-  4 -**--**-  5      -0.9571
  -**--**-  5 -**--**-  5       0.0505
  -**--**-  6 -**--**-  5      -0.1570
  -**--**-  7 -**--**-  5      -0.1023
  -**--**-  8 -**--**-  5       0.0008
          TOTAL                          0.8722


                        Total spin-spin coupling constant
                        ---------------------------------

   label    A  label    I
  -**--**-  1 -**--**-  1       0.0030
  -**--**-  2 -**--**-  1      -0.0014
  -**--**-  3 -**--**-  1      -0.0005
  -**--**-  4 -**--**-  1       0.0039
  -**--**-  5 -**--**-  1       0.0196
  -**--**-  6 -**--**-  1       0.0096
  -**--**-  7 -**--**-  1      -0.0043
  -**--**-  8 -**--**-  1      -0.0120
  -**--**-  1 -**--**-  2     -17.7578
  -**--**-  2 -**--**-  2       0.0718
  -**--**-  3 -**--**-  2      -0.0332
  -**--**-  4 -**--**-  2       0.2130
  -**--**-  5 -**--**-  2     -72.3112
  -**--**-  6 -**--**-  2     -31.7108
  -**--**-  7 -**--**-  2       0.3421
  -**--**-  8 -**--**-  2      35.2011
  -**--**-  1 -**--**-  3      -0.7408
  -**--**-  2 -**--**-  3      -5.2466
  -**--**-  3 -**--**-  3     -15.6905
  -**--**-  4 -**--**-  3       0.2245
  -**--**-  5 -**--**-  3      -0.9181
  -**--**-  6 -**--**-  3       0.4375
  -**--**-  7 -**--**-  3      -7.1737
  -**--**-  8 -**--**-  3      -0.0051
  -**--**-  1 -**--**-  4      14.3165
  -**--**-  2 -**--**-  4      -0.7916
  -**--**-  3 -**--**-  4       0.1522
  -**--**-  4 -**--**-  4      -0.1167
  -**--**-  5 -**--**-  4      24.9084
  -**--**-  6 -**--**-  4      22.2528
  -**--**-  7 -**--**-  4      -2.0508
  -**--**-  8 -**--**-  4     -17.4024
  -**--**-  1 -**--**-  5      -1.3435
  -**--**-  2 -**--**-  5      -1.8038
  -**--**-  3 -**--**-  5       0.2548
  -**--**-  4 -**--**-  5      -0.9571
  -**--**-  5 -**--**-  5       0.2057
  -**--**-  6 -**--**-  5      -0.5485
  -**--**-  7 -**--**-  5      -2.4619
  -**--**-  8 -**--**-  5      -0.7115
          TOTAL(-DSO)                        -81.1773

  Mass number atom 1:   2          Abundance:    0.015
  Mass number atom 2:  17          Abundance:    0.040


                     DSO part of spin-spin coupling constant
                     ---------------------------------------

          label     I  label     J
      7   -**--**-  2  -**--**-  2      0.0263
     13   -**--**-  3  -**--**-  3      0.0440
     19   -**--**-  4  -**--**-  4     -0.0437
     25   -**--**-  5  -**--**-  5     -0.0800
          TOTAL                         -0.0502


                     PSO part of spin-spin coupling constant
                     ---------------------------------------

   label    A  label    I
  -**--**-  2 -**--**-  1      -0.0002
  -**--**-  4 -**--**-  1       0.0006
  -**--**-  7 -**--**-  1      -0.0007
  -**--**-  2 -**--**-  2      -0.0098
  -**--**-  3 -**--**-  2      -0.0040
  -**--**-  4 -**--**-  2       0.0375
  -**--**-  7 -**--**-  2       0.0278
  -**--**-  1 -**--**-  3      -0.2262
  -**--**-  4 -**--**-  3       0.0544
  -**--**-  5 -**--**-  3      -0.1784
  -**--**-  6 -**--**-  3       0.0412
  -**--**-  8 -**--**-  3      -0.0239
  -**--**-  2 -**--**-  4      -0.1554
  -**--**-  3 -**--**-  4       0.0219
  -**--**-  4 -**--**-  4      -0.0028
  -**--**-  7 -**--**-  4      -0.3703
  -**--**-  1 -**--**-  5      -0.1537
  -**--**-  2 -**--**-  5      -0.2167
  -**--**-  3 -**--**-  5       0.0193
  -**--**-  5 -**--**-  5       0.0238
  -**--**-  6 -**--**-  5      -0.0601
  -**--**-  7 -**--**-  5      -0.3622
  -**--**-  8 -**--**-  5      -0.1093
          TOTAL                         -1.6472


                      FC part of spin-spin coupling constant
                      --------------------------------------

   label    A  label    I
  -**--**-  1 -**--**-  1       0.0005
  -**--**-  5 -**--**-  1       0.0030
  -**--**-  6 -**--**-  1       0.0015
  -**--**-  8 -**--**-  1      -0.0019
  -**--**-  1 -**--**-  2      -2.7289
  -**--**-  5 -**--**-  2     -11.0994
  -**--**-  6 -**--**-  2      -4.8686
  -**--**-  8 -**--**-  2       5.4034
  -**--**-  2 -**--**-  3      -0.8292
  -**--**-  3 -**--**-  3      -2.3963
  -**--**-  7 -**--**-  3      -1.2132
  -**--**-  1 -**--**-  4       2.2272
  -**--**-  5 -**--**-  4       3.8084
  -**--**-  6 -**--**-  4       3.4210
  -**--**-  8 -**--**-  4      -2.6755
          TOTAL                        -10.9479


                   SD(+FC) part of spin-spin coupling constant
                   -------------------------------------------

   label    A  label    I
  -**--**-  1 -**--**-  2       0.0030
  -**--**-  2 -**--**-  2       0.0208
  -**--**-  3 -**--**-  2      -0.0011
  -**--**-  4 -**--**-  2      -0.0048
  -**--**-  5 -**--**-  2      -0.0008
  -**--**-  6 -**--**-  2       0.0008
  -**--**-  7 -**--**-  2       0.0248
  -**--**-  8 -**--**-  2       0.0002
  -**--**-  1 -**--**-  3       0.1125
  -**--**-  2 -**--**-  3       0.0238
  -**--**-  3 -**--**-  3      -0.0123
  -**--**-  4 -**--**-  3      -0.0200
  -**--**-  5 -**--**-  3       0.0375
  -**--**-  6 -**--**-  3       0.0260
  -**--**-  7 -**--**-  3       0.1120
  -**--**-  8 -**--**-  3       0.0231
  -**--**-  1 -**--**-  4      -0.0295
  -**--**-  2 -**--**-  4       0.0339
  -**--**-  3 -**--**-  4       0.0015
  -**--**-  4 -**--**-  4      -0.0152
  -**--**-  5 -**--**-  4       0.0151
  -**--**-  6 -**--**-  4      -0.0051
  -**--**-  7 -**--**-  4       0.0554
  -**--**-  8 -**--**-  4       0.0041
  -**--**-  1 -**--**-  5      -0.0525
  -**--**-  2 -**--**-  5      -0.0602
  -**--**-  3 -**--**-  5       0.0198
  -**--**-  4 -**--**-  5      -0.1469
  -**--**-  5 -**--**-  5       0.0078
  -**--**-  6 -**--**-  5      -0.0241
  -**--**-  7 -**--**-  5      -0.0157
  -**--**-  8 -**--**-  5       0.0001
          TOTAL                          0.1339


                        Total spin-spin coupling constant
                        ---------------------------------

   label    A  label    I
  -**--**-  1 -**--**-  1       0.0005
  -**--**-  2 -**--**-  1      -0.0002
  -**--**-  4 -**--**-  1       0.0006
  -**--**-  5 -**--**-  1       0.0030
  -**--**-  6 -**--**-  1       0.0015
  -**--**-  7 -**--**-  1      -0.0007
  -**--**-  8 -**--**-  1      -0.0018
  -**--**-  1 -**--**-  2      -2.7259
  -**--**-  2 -**--**-  2       0.0110
  -**--**-  3 -**--**-  2      -0.0051
  -**--**-  4 -**--**-  2       0.0327
  -**--**-  5 -**--**-  2     -11.1002
  -**--**-  6 -**--**-  2      -4.8678
  -**--**-  7 -**--**-  2       0.0525
  -**--**-  8 -**--**-  2       5.4036
  -**--**-  1 -**--**-  3      -0.1137
  -**--**-  2 -**--**-  3      -0.8054
  -**--**-  3 -**--**-  3      -2.4086
  -**--**-  4 -**--**-  3       0.0345
  -**--**-  5 -**--**-  3      -0.1409
  -**--**-  6 -**--**-  3       0.0672
  -**--**-  7 -**--**-  3      -1.1012
  -**--**-  8 -**--**-  3      -0.0008
  -**--**-  1 -**--**-  4       2.1977
  -**--**-  2 -**--**-  4      -0.1215
  -**--**-  3 -**--**-  4       0.0234
  -**--**-  4 -**--**-  4      -0.0179
  -**--**-  5 -**--**-  4       3.8236
  -**--**-  6 -**--**-  4       3.4159
  -**--**-  7 -**--**-  4      -0.3148
  -**--**-  8 -**--**-  4      -2.6714
  -**--**-  1 -**--**-  5      -0.2062
  -**--**-  2 -**--**-  5      -0.2769
  -**--**-  3 -**--**-  5       0.0391
  -**--**-  4 -**--**-  5      -0.1469
  -**--**-  5 -**--**-  5       0.0316
  -**--**-  6 -**--**-  5      -0.0842
  -**--**-  7 -**--**-  5      -0.3779
  -**--**-  8 -**--**-  5      -0.1092
          TOTAL(-DSO)                        -12.4612


              Indirect spin-spin-coupling between H_b    and O     :
              ======================================================


  Mass number atom 1:   1          Abundance:   99.985
  Mass number atom 2:  17          Abundance:    0.040


                     DSO part of spin-spin coupling constant
                     ---------------------------------------

          label     I  label     J
      1   -**--**-  1  -**--**-  1      0.0206
      7   -**--**-  2  -**--**-  2      0.1714
     13   -**--**-  3  -**--**-  3      0.2868
     19   -**--**-  4  -**--**-  4     -0.2848
     25   -**--**-  5  -**--**-  5     -0.5211
          TOTAL                         -0.3271


                     PSO part of spin-spin coupling constant
                     ---------------------------------------

   label    A  label    I
  -**--**-  2 -**--**-  1      -0.0013
  -**--**-  3 -**--**-  1      -0.0004
  -**--**-  4 -**--**-  1       0.0039
  -**--**-  7 -**--**-  1      -0.0044
  -**--**-  2 -**--**-  2      -0.0636
  -**--**-  3 -**--**-  2      -0.0263
  -**--**-  4 -**--**-  2       0.2445
  -**--**-  7 -**--**-  2       0.1808
  -**--**-  1 -**--**-  3      -1.4735
  -**--**-  4 -**--**-  3       0.3547
  -**--**-  5 -**--**-  3      -1.1623
  -**--**-  6 -**--**-  3       0.2684
  -**--**-  8 -**--**-  3      -0.1558
  -**--**-  2 -**--**-  4      -1.0124
  -**--**-  3 -**--**-  4       0.1428
  -**--**-  4 -**--**-  4      -0.0179
  -**--**-  7 -**--**-  4      -2.4120
  -**--**-  1 -**--**-  5      -1.0014
  -**--**-  2 -**--**-  5      -1.4117
  -**--**-  3 -**--**-  5       0.1257
  -**--**-  5 -**--**-  5       0.1552
  -**--**-  6 -**--**-  5      -0.3915
  -**--**-  7 -**--**-  5      -2.3596
  -**--**-  8 -**--**-  5      -0.7123
          TOTAL                        -10.7304


                      FC part of spin-spin coupling constant
                      --------------------------------------

   label    A  label    I
  -**--**-  1 -**--**-  1       0.0031
  -**--**-  5 -**--**-  1       0.0198
  -**--**-  6 -**--**-  1       0.0095
  -**--**-  8 -**--**-  1      -0.0121
  -**--**-  1 -**--**-  2     -17.7772
  -**--**-  5 -**--**-  2     -72.3059
  -**--**-  6 -**--**-  2     -31.7159
  -**--**-  8 -**--**-  2      35.1998
  -**--**-  2 -**--**-  3      -5.4018
  -**--**-  3 -**--**-  3     -15.6102
  -**--**-  7 -**--**-  3      -7.9033
  -**--**-  1 -**--**-  4      14.5088
  -**--**-  5 -**--**-  4      24.8097
  -**--**-  6 -**--**-  4      22.2858
  -**--**-  8 -**--**-  4     -17.4292
          TOTAL                        -71.3192


                   SD(+FC) part of spin-spin coupling constant
                   -------------------------------------------

   label    A  label    I
  -**--**-  5 -**--**-  1      -0.0002
  -**--**-  6 -**--**-  1       0.0001
  -**--**-  1 -**--**-  2       0.0194
  -**--**-  2 -**--**-  2       0.1353
  -**--**-  3 -**--**-  2      -0.0069
  -**--**-  4 -**--**-  2      -0.0315
  -**--**-  5 -**--**-  2      -0.0054
  -**--**-  6 -**--**-  2       0.0052
  -**--**-  7 -**--**-  2       0.1612
  -**--**-  8 -**--**-  2       0.0013
  -**--**-  1 -**--**-  3       0.7327
  -**--**-  2 -**--**-  3       0.1552
  -**--**-  3 -**--**-  3      -0.0801
  -**--**-  4 -**--**-  3      -0.1302
  -**--**-  5 -**--**-  3       0.2441
  -**--**-  6 -**--**-  3       0.1691
  -**--**-  7 -**--**-  3       0.7296
  -**--**-  8 -**--**-  3       0.1507
  -**--**-  1 -**--**-  4      -0.1924
  -**--**-  2 -**--**-  4       0.2208
  -**--**-  3 -**--**-  4       0.0095
  -**--**-  4 -**--**-  4      -0.0988
  -**--**-  5 -**--**-  4       0.0986
  -**--**-  6 -**--**-  4      -0.0330
  -**--**-  7 -**--**-  4       0.3612
  -**--**-  8 -**--**-  4       0.0269
  -**--**-  1 -**--**-  5      -0.3421
  -**--**-  2 -**--**-  5      -0.3921
  -**--**-  3 -**--**-  5       0.1291
  -**--**-  4 -**--**-  5      -0.9571
  -**--**-  5 -**--**-  5       0.0505
  -**--**-  6 -**--**-  5      -0.1570
  -**--**-  7 -**--**-  5      -0.1023
  -**--**-  8 -**--**-  5       0.0008
          TOTAL                          0.8722


                        Total spin-spin coupling constant
                        ---------------------------------

   label    A  label    I
  -**--**-  1 -**--**-  1       0.0030
  -**--**-  2 -**--**-  1      -0.0014
  -**--**-  3 -**--**-  1      -0.0005
  -**--**-  4 -**--**-  1       0.0039
  -**--**-  5 -**--**-  1       0.0196
  -**--**-  6 -**--**-  1       0.0096
  -**--**-  7 -**--**-  1      -0.0043
  -**--**-  8 -**--**-  1      -0.0120
  -**--**-  1 -**--**-  2     -17.7578
  -**--**-  2 -**--**-  2       0.0718
  -**--**-  3 -**--**-  2      -0.0332
  -**--**-  4 -**--**-  2       0.2130
  -**--**-  5 -**--**-  2     -72.3112
  -**--**-  6 -**--**-  2     -31.7108
  -**--**-  7 -**--**-  2       0.3421
  -**--**-  8 -**--**-  2      35.2011
  -**--**-  1 -**--**-  3      -0.7408
  -**--**-  2 -**--**-  3      -5.2466
  -**--**-  3 -**--**-  3     -15.6905
  -**--**-  4 -**--**-  3       0.2245
  -**--**-  5 -**--**-  3      -0.9181
  -**--**-  6 -**--**-  3       0.4375
  -**--**-  7 -**--**-  3      -7.1737
  -**--**-  8 -**--**-  3      -0.0051
  -**--**-  1 -**--**-  4      14.3165
  -**--**-  2 -**--**-  4      -0.7916
  -**--**-  3 -**--**-  4       0.1522
  -**--**-  4 -**--**-  4      -0.1167
  -**--**-  5 -**--**-  4      24.9084
  -**--**-  6 -**--**-  4      22.2528
  -**--**-  7 -**--**-  4      -2.0508
  -**--**-  8 -**--**-  4     -17.4024
  -**--**-  1 -**--**-  5      -1.3435
  -**--**-  2 -**--**-  5      -1.8038
  -**--**-  3 -**--**-  5       0.2548
  -**--**-  4 -**--**-  5      -0.9571
  -**--**-  5 -**--**-  5       0.2057
  -**--**-  6 -**--**-  5      -0.5485
  -**--**-  7 -**--**-  5      -2.4619
  -**--**-  8 -**--**-  5      -0.7115
          TOTAL(-DSO)                        -81.1773

  Mass number atom 1:   2          Abundance:    0.015
  Mass number atom 2:  17          Abundance:    0.040


                     DSO part of spin-spin coupling constant
                     ---------------------------------------

          label     I  label     J
      7   -**--**-  2  -**--**-  2      0.0263
     13   -**--**-  3  -**--**-  3      0.0440
     19   -**--**-  4  -**--**-  4     -0.0437
     25   -**--**-  5  -**--**-  5     -0.0800
          TOTAL                         -0.0502


                     PSO part of spin-spin coupling constant
                     ---------------------------------------

   label    A  label    I
  -**--**-  2 -**--**-  1      -0.0002
  -**--**-  4 -**--**-  1       0.0006
  -**--**-  7 -**--**-  1      -0.0007
  -**--**-  2 -**--**-  2      -0.0098
  -**--**-  3 -**--**-  2      -0.0040
  -**--**-  4 -**--**-  2       0.0375
  -**--**-  7 -**--**-  2       0.0278
  -**--**-  1 -**--**-  3      -0.2262
  -**--**-  4 -**--**-  3       0.0544
  -**--**-  5 -**--**-  3      -0.1784
  -**--**-  6 -**--**-  3       0.0412
  -**--**-  8 -**--**-  3      -0.0239
  -**--**-  2 -**--**-  4      -0.1554
  -**--**-  3 -**--**-  4       0.0219
  -**--**-  4 -**--**-  4      -0.0028
  -**--**-  7 -**--**-  4      -0.3703
  -**--**-  1 -**--**-  5      -0.1537
  -**--**-  2 -**--**-  5      -0.2167
  -**--**-  3 -**--**-  5       0.0193
  -**--**-  5 -**--**-  5       0.0238
  -**--**-  6 -**--**-  5      -0.0601
  -**--**-  7 -**--**-  5      -0.3622
  -**--**-  8 -**--**-  5      -0.1093
          TOTAL                         -1.6472


                      FC part of spin-spin coupling constant
                      --------------------------------------

   label    A  label    I
  -**--**-  1 -**--**-  1       0.0005
  -**--**-  5 -**--**-  1       0.0030
  -**--**-  6 -**--**-  1       0.0015
  -**--**-  8 -**--**-  1      -0.0019
  -**--**-  1 -**--**-  2      -2.7289
  -**--**-  5 -**--**-  2     -11.0994
  -**--**-  6 -**--**-  2      -4.8686
  -**--**-  8 -**--**-  2       5.4034
  -**--**-  2 -**--**-  3      -0.8292
  -**--**-  3 -**--**-  3      -2.3963
  -**--**-  7 -**--**-  3      -1.2132
  -**--**-  1 -**--**-  4       2.2272
  -**--**-  5 -**--**-  4       3.8084
  -**--**-  6 -**--**-  4       3.4210
  -**--**-  8 -**--**-  4      -2.6755
          TOTAL                        -10.9479


                   SD(+FC) part of spin-spin coupling constant
                   -------------------------------------------

   label    A  label    I
  -**--**-  1 -**--**-  2       0.0030
  -**--**-  2 -**--**-  2       0.0208
  -**--**-  3 -**--**-  2      -0.0011
  -**--**-  4 -**--**-  2      -0.0048
  -**--**-  5 -**--**-  2      -0.0008
  -**--**-  6 -**--**-  2       0.0008
  -**--**-  7 -**--**-  2       0.0248
  -**--**-  8 -**--**-  2       0.0002
  -**--**-  1 -**--**-  3       0.1125
  -**--**-  2 -**--**-  3       0.0238
  -**--**-  3 -**--**-  3      -0.0123
  -**--**-  4 -**--**-  3      -0.0200
  -**--**-  5 -**--**-  3       0.0375
  -**--**-  6 -**--**-  3       0.0260
  -**--**-  7 -**--**-  3       0.1120
  -**--**-  8 -**--**-  3       0.0231
  -**--**-  1 -**--**-  4      -0.0295
  -**--**-  2 -**--**-  4       0.0339
  -**--**-  3 -**--**-  4       0.0015
  -**--**-  4 -**--**-  4      -0.0152
  -**--**-  5 -**--**-  4       0.0151
  -**--**-  6 -**--**-  4      -0.0051
  -**--**-  7 -**--**-  4       0.0554
  -**--**-  8 -**--**-  4       0.0041
  -**--**-  1 -**--**-  5      -0.0525
  -**--**-  2 -**--**-  5      -0.0602
  -**--**-  3 -**--**-  5       0.0198
  -**--**-  4 -**--**-  5      -0.1469
  -**--**-  5 -**--**-  5       0.0078
  -**--**-  6 -**--**-  5      -0.0241
  -**--**-  7 -**--**-  5      -0.0157
  -**--**-  8 -**--**-  5       0.0001
          TOTAL                          0.1339


                        Total spin-spin coupling constant
                        ---------------------------------

   label    A  label    I
  -**--**-  1 -**--**-  1       0.0005
  -**--**-  2 -**--**-  1      -0.0002
  -**--**-  4 -**--**-  1       0.0006
  -**--**-  5 -**--**-  1       0.0030
  -**--**-  6 -**--**-  1       0.0015
  -**--**-  7 -**--**-  1      -0.0007
  -**--**-  8 -**--**-  1      -0.0018
  -**--**-  1 -**--**-  2      -2.7259
  -**--**-  2 -**--**-  2       0.0110
  -**--**-  3 -**--**-  2      -0.0051
  -**--**-  4 -**--**-  2       0.0327
  -**--**-  5 -**--**-  2     -11.1002
  -**--**-  6 -**--**-  2      -4.8678
  -**--**-  7 -**--**-  2       0.0525
  -**--**-  8 -**--**-  2       5.4036
  -**--**-  1 -**--**-  3      -0.1137
  -**--**-  2 -**--**-  3      -0.8054
  -**--**-  3 -**--**-  3      -2.4086
  -**--**-  4 -**--**-  3       0.0345
  -**--**-  5 -**--**-  3      -0.1409
  -**--**-  6 -**--**-  3       0.0672
[...]


                        Total spin-spin coupling constant
                        ---------------------------------

   label    A  label    I
  -**--**-  1 -**--**-  1       0.0037
  -**--**-  2 -**--**-  1      -0.0049
  -**--**-  3 -**--**-  1      -0.0008
  -**--**-  4 -**--**-  1       0.0148
  -**--**-  5 -**--**-  1       0.0160
  -**--**-  6 -**--**-  1       0.0237
  -**--**-  7 -**--**-  1      -0.0252
  -**--**-  8 -**--**-  1       0.0013
  -**--**-  1 -**--**-  2      -0.6649
  -**--**-  2 -**--**-  2       0.4172
  -**--**-  3 -**--**-  2       9.1962
  -**--**-  4 -**--**-  2       0.0065
  -**--**-  5 -**--**-  2     -10.5062
  -**--**-  6 -**--**-  2      -1.0470
  -**--**-  7 -**--**-  2       0.5959
  -**--**-  8 -**--**-  2      -0.1771
  -**--**-  1 -**--**-  3       2.6489
  -**--**-  2 -**--**-  3      -2.5449
  -**--**-  3 -**--**-  3     -37.6778
  -**--**-  4 -**--**-  3      -0.0008
  -**--**-  5 -**--**-  3      34.4210
  -**--**-  6 -**--**-  3       3.7984
  -**--**-  7 -**--**-  3      -2.1897
  -**--**-  8 -**--**-  3       1.4206
  -**--**-  1 -**--**-  4      -1.4142
  -**--**-  2 -**--**-  4       1.0378
  -**--**-  3 -**--**-  4      13.7052
  -**--**-  4 -**--**-  4       0.0089
  -**--**-  5 -**--**-  4     -14.0056
  -**--**-  6 -**--**-  4      -0.9413
  -**--**-  7 -**--**-  4       0.7131
  -**--**-  8 -**--**-  4      -0.4437
  -**--**-  1 -**--**-  5       0.2186
  -**--**-  2 -**--**-  5       0.1108
  -**--**-  3 -**--**-  5       0.0136
  -**--**-  4 -**--**-  5       0.0141
  -**--**-  5 -**--**-  5       0.0491
  -**--**-  6 -**--**-  5       0.0031
  -**--**-  7 -**--**-  5       0.0102
  -**--**-  8 -**--**-  5       0.0177
          TOTAL(-DSO)                         -3.1776

  Mass number atom 1:   2          Abundance:    0.015
  Mass number atom 2:   2          Abundance:    0.015


                     DSO part of spin-spin coupling constant
                     ---------------------------------------

          label     I  label     J
      1   -**--**-  1  -**--**-  1     -0.0313
      7   -**--**-  2  -**--**-  2     -0.0577
     13   -**--**-  3  -**--**-  3     -0.0165
     19   -**--**-  4  -**--**-  4     -0.0277
     25   -**--**-  5  -**--**-  5     -0.0103
          TOTAL                         -0.1434


                     PSO part of spin-spin coupling constant
                     ---------------------------------------

   label    A  label    I
  -**--**-  1 -**--**-  1       0.0006
  -**--**-  2 -**--**-  1      -0.0007
  -**--**-  3 -**--**-  1      -0.0001
  -**--**-  4 -**--**-  1       0.0023
  -**--**-  5 -**--**-  1       0.0025
  -**--**-  6 -**--**-  1       0.0036
  -**--**-  7 -**--**-  1      -0.0038
  -**--**-  8 -**--**-  1       0.0002
  -**--**-  2 -**--**-  2      -0.0005
  -**--**-  3 -**--**-  2      -0.0007
  -**--**-  4 -**--**-  2       0.0009
  -**--**-  5 -**--**-  2       0.0003
  -**--**-  6 -**--**-  2       0.0045
  -**--**-  7 -**--**-  2      -0.0020
  -**--**-  8 -**--**-  2       0.0019
  -**--**-  1 -**--**-  3      -0.0110
  -**--**-  3 -**--**-  3       0.0022
  -**--**-  5 -**--**-  3      -0.0052
  -**--**-  7 -**--**-  3       0.0025
  -**--**-  8 -**--**-  3      -0.0014
  -**--**-  1 -**--**-  4       0.0167
  -**--**-  2 -**--**-  4      -0.0024
  -**--**-  3 -**--**-  4      -0.0003
  -**--**-  4 -**--**-  4       0.0014
  -**--**-  5 -**--**-  4       0.0031
  -**--**-  7 -**--**-  4      -0.0076
  -**--**-  8 -**--**-  4       0.0057
  -**--**-  1 -**--**-  5       0.0309
  -**--**-  2 -**--**-  5       0.0164
  -**--**-  3 -**--**-  5       0.0027
  -**--**-  5 -**--**-  5       0.0074
  -**--**-  6 -**--**-  5       0.0006
  -**--**-  7 -**--**-  5       0.0017
  -**--**-  8 -**--**-  5       0.0027
          TOTAL                          0.0750


                      FC part of spin-spin coupling constant
                      --------------------------------------

   label    A  label    I
  -**--**-  1 -**--**-  2      -0.1045
  -**--**-  2 -**--**-  2       0.0669
  -**--**-  3 -**--**-  2       1.4119
  -**--**-  5 -**--**-  2      -1.6136
  -**--**-  6 -**--**-  2      -0.1654
  -**--**-  7 -**--**-  2       0.0964
  -**--**-  8 -**--**-  2      -0.0340
  -**--**-  1 -**--**-  3       0.4220
  -**--**-  2 -**--**-  3      -0.4038
  -**--**-  3 -**--**-  3      -5.7854
  -**--**-  5 -**--**-  3       5.2876
  -**--**-  6 -**--**-  3       0.5831
  -**--**-  7 -**--**-  3      -0.3521
  -**--**-  8 -**--**-  3       0.2222
  -**--**-  1 -**--**-  4      -0.2328
  -**--**-  2 -**--**-  4       0.1610
  -**--**-  3 -**--**-  4       2.1042
  -**--**-  5 -**--**-  4      -2.1561
  -**--**-  6 -**--**-  4      -0.1490
  -**--**-  7 -**--**-  4       0.1173
  -**--**-  8 -**--**-  4      -0.0753
          TOTAL                         -0.5993


                   SD(+FC) part of spin-spin coupling constant
                   -------------------------------------------

   label    A  label    I
  -**--**-  1 -**--**-  2       0.0025
  -**--**-  2 -**--**-  2      -0.0024
  -**--**-  3 -**--**-  2       0.0005
  -**--**-  5 -**--**-  2       0.0005
  -**--**-  6 -**--**-  2       0.0001
  -**--**-  7 -**--**-  2      -0.0030
  -**--**-  8 -**--**-  2       0.0048
  -**--**-  1 -**--**-  3      -0.0044
  -**--**-  2 -**--**-  3       0.0131
  -**--**-  3 -**--**-  3      -0.0005
  -**--**-  4 -**--**-  3      -0.0001
  -**--**-  5 -**--**-  3       0.0014
  -**--**-  7 -**--**-  3       0.0134
  -**--**-  8 -**--**-  3      -0.0027
  -**--**-  1 -**--**-  4      -0.0010
  -**--**-  2 -**--**-  4       0.0007
  -**--**-  5 -**--**-  4       0.0030
  -**--**-  6 -**--**-  4       0.0044
  -**--**-  7 -**--**-  4      -0.0002
  -**--**-  8 -**--**-  4       0.0015
  -**--**-  1 -**--**-  5       0.0027
  -**--**-  2 -**--**-  5       0.0006
  -**--**-  3 -**--**-  5      -0.0006
  -**--**-  4 -**--**-  5       0.0022
  -**--**-  5 -**--**-  5       0.0002
  -**--**-  6 -**--**-  5      -0.0001
          TOTAL                          0.0365


                        Total spin-spin coupling constant
                        ---------------------------------

   label    A  label    I
  -**--**-  1 -**--**-  1       0.0006
  -**--**-  2 -**--**-  1      -0.0007
  -**--**-  3 -**--**-  1      -0.0001
  -**--**-  4 -**--**-  1       0.0023
  -**--**-  5 -**--**-  1       0.0025
  -**--**-  6 -**--**-  1       0.0036
  -**--**-  7 -**--**-  1      -0.0039
  -**--**-  8 -**--**-  1       0.0002
  -**--**-  1 -**--**-  2      -0.1021
  -**--**-  2 -**--**-  2       0.0640
  -**--**-  3 -**--**-  2       1.4117
  -**--**-  4 -**--**-  2       0.0010
  -**--**-  5 -**--**-  2      -1.6128
  -**--**-  6 -**--**-  2      -0.1607
  -**--**-  7 -**--**-  2       0.0915
  -**--**-  8 -**--**-  2      -0.0272
  -**--**-  1 -**--**-  3       0.4066
  -**--**-  2 -**--**-  3      -0.3907
  -**--**-  3 -**--**-  3      -5.7838
  -**--**-  4 -**--**-  3      -0.0001
  -**--**-  5 -**--**-  3       5.2838
  -**--**-  6 -**--**-  3       0.5831
  -**--**-  7 -**--**-  3      -0.3361
  -**--**-  8 -**--**-  3       0.2181
  -**--**-  1 -**--**-  4      -0.2171
  -**--**-  2 -**--**-  4       0.1593
  -**--**-  3 -**--**-  4       2.1038
  -**--**-  4 -**--**-  4       0.0014
  -**--**-  5 -**--**-  4      -2.1499
  -**--**-  6 -**--**-  4      -0.1445
  -**--**-  7 -**--**-  4       0.1095
  -**--**-  8 -**--**-  4      -0.0681
  -**--**-  1 -**--**-  5       0.0336
  -**--**-  2 -**--**-  5       0.0170
  -**--**-  3 -**--**-  5       0.0021
  -**--**-  4 -**--**-  5       0.0022
  -**--**-  5 -**--**-  5       0.0075
  -**--**-  6 -**--**-  5       0.0005
  -**--**-  7 -**--**-  5       0.0016
  -**--**-  8 -**--**-  5       0.0027
          TOTAL(-DSO)                         -0.4878


   ***************************************************************************
   ************************ FINAL RESULTS from ABACUS ************************
   ***************************************************************************


 
     Date and time (Linux)  : Wed May  4 11:43:20 2022
     Host name              : node631                                 


                             Molecular geometry (au)
                             -----------------------

 O          0.0000000000           -0.2249058930            0.0000000000
 H_a        1.4523499293            0.8996235720            0.0000000000
 H_b       -1.4523499293            0.8996235720            0.0000000000





                        Molecular wave function and energy
                        ----------------------------------

     Spatial symmetry   1 ( A   )
     Spin multiplicity  1
     2 * M_S            0
     State number       1
     Total charge       0

     Total energy        -75.9833879352 au (Hartrees)
                         -2067.61316268 eV
                           -199494.3543 kJ/mol
                            -47680.2950 kcal/mol


                   Scalar Breit-Pauli relativistic corrections
                   -------------------------------------------

     Darwin correction:                          0.1949203816 au
     Mass-velocity correction:                  -0.2461758047 au

     Total relativistic correction:             -0.0512554231 au ( 0.0675%)
     Non-relativistic + relativistic energy:   -76.0346433583 au



      (Note that these corrections are NOT included in the results below.)


                                  Dipole moment
                                  -------------

                 au               Debye          C m (/(10**-30)
              1.037024           2.635851           8.792253


                             Dipole moment components
                             ------------------------

                 au               Debye          C m (/(10**-30)

      x     -0.00000000        -0.00000000        -0.00000000
      y      1.03702368         2.63585112         8.79225293
      z      0.00000000         0.00000000         0.00000000


   Units:   1 a.u. =   2.54175 Debye 
            1 a.u. =   8.47835 (10**-30) C m (SI)




 *******************************************************************************
 **************** ABACUS - INDIRECT NUCLEAR SPIN-SPIN COUPLINGS ****************
 *******************************************************************************

 Definitions from Smith, Palke, and Grieg, Concepts in Mag. Res. 4 (1992) 107



                       +------------------------------------+
                       ! ABACUS - Final spin-spin couplings !
                       +------------------------------------+



              Indirect spin-spin coupling between H_a    and O     :
              ======================================================


  Mass number atom 1:    1;   Abundance:  99.985 %;   g factor:   5.585694
  Mass number atom 2:   17;   Abundance:   0.040 %;   g factor:  -0.757516

  Isotropic coupling        :    -81.4998 Hz
  Anisotropic coupling      :     17.4632 Hz
  Asymmetry                 :     -0.3085   
  S parameter               :    -17.7381 Hz
  A parameter               :     -0.1148 Hz
  Isotropic DSO contribution:     -0.3271 Hz
  Isotropic PSO contribution:    -10.7285 Hz
  Isotropic SD contribution :      0.8722 Hz
  Isotropic FC contribution :    -71.3164 Hz




                           Total Coupling Tensor in Hz
                           ---------------------------

                             x              y              z

                x   -86.37882      -1.643948      1.2894640E-13
                y   -1.414327      -88.26296      9.7715437E-14
                z   1.2197905E-13  9.7067417E-14  -69.85770    

  Mass number atom 1:    2;   Abundance:   0.015 %;   g factor:   0.857438
  Mass number atom 2:   17;   Abundance:   0.040 %;   g factor:  -0.757516

  Isotropic coupling        :    -12.5107 Hz
  Anisotropic coupling      :      2.6807 Hz
  Asymmetry                 :     -0.3085   
  S parameter               :     -2.7229 Hz
  A parameter               :     -0.0176 Hz
  Isotropic DSO contribution:     -0.0502 Hz
  Isotropic PSO contribution:     -1.6469 Hz
  Isotropic SD contribution :      0.1339 Hz
  Isotropic FC contribution :    -10.9475 Hz




                           Total Coupling Tensor in Hz
                           ---------------------------

                             x              y              z

                x   -13.25967     -0.2523560      1.9794057E-14
                y  -0.2171078      -13.54890      1.4999914E-14
                z   1.8724527E-14  1.4900439E-14  -10.72358    


              Indirect spin-spin coupling between H_b    and O     :
              ======================================================


  Mass number atom 1:    1;   Abundance:  99.985 %;   g factor:   5.585694
  Mass number atom 2:   17;   Abundance:   0.040 %;   g factor:  -0.757516

  Isotropic coupling        :    -81.4998 Hz
  Anisotropic coupling      :     17.4632 Hz
  Asymmetry                 :     -0.3085   
  S parameter               :    -17.7381 Hz
  A parameter               :     -0.1148 Hz
  Isotropic DSO contribution:     -0.3271 Hz
  Isotropic PSO contribution:    -10.7285 Hz
  Isotropic SD contribution :      0.8722 Hz
  Isotropic FC contribution :    -71.3164 Hz




                           Total Coupling Tensor in Hz
                           ---------------------------

                             x              y              z

                x   -86.37882       1.643948      6.1936795E-14
                y    1.414327      -88.26296      1.9564725E-14
                z   8.5545348E-14 -5.7983879E-15  -69.85770    

  Mass number atom 1:    2;   Abundance:   0.015 %;   g factor:   0.857438
  Mass number atom 2:   17;   Abundance:   0.040 %;   g factor:  -0.757516

  Isotropic coupling        :    -12.5107 Hz
  Anisotropic coupling      :      2.6807 Hz
  Asymmetry                 :     -0.3085   
  S parameter               :     -2.7229 Hz
  A parameter               :     -0.0176 Hz
  Isotropic DSO contribution:     -0.0502 Hz
  Isotropic PSO contribution:     -1.6469 Hz
  Isotropic SD contribution :      0.1339 Hz
  Isotropic FC contribution :    -10.9475 Hz




                           Total Coupling Tensor in Hz
                           ---------------------------

                             x              y              z

                x   -13.25967      0.2523560      9.5076747E-15
                y   0.2171078      -13.54890      3.0033043E-15
                z   1.3131731E-14 -8.9008780E-16  -10.72358    


              Indirect spin-spin coupling between H_b    and H_a   :
              ======================================================


  Mass number atom 1:    1;   Abundance:  99.985 %;   g factor:   5.585694
  Mass number atom 2:    1;   Abundance:  99.985 %;   g factor:   5.585694

  Isotropic coupling        :    -26.7839 Hz
  Anisotropic coupling      :    -52.7978 Hz
  Asymmetry                 :     -0.3855   
  S parameter               :     54.0898 Hz
  A parameter               :     10.5096 Hz
  Isotropic DSO contribution:     -6.0873 Hz
  Isotropic PSO contribution:      3.1825 Hz
  Isotropic SD contribution :      1.5483 Hz
  Isotropic FC contribution :    -25.4275 Hz




                           Total Coupling Tensor in Hz
                           ---------------------------

                             x              y              z

                x   -2.399784      -10.50964     -1.7242903E-14
                y    10.50964      -15.96952     -4.3274565E-15
                z  -1.7200830E-14 -1.4346829E-14  -61.98244    

  Mass number atom 1:    1;   Abundance:  99.985 %;   g factor:   5.585694
  Mass number atom 2:    2;   Abundance:   0.015 %;   g factor:   0.857438

  Isotropic coupling        :     -4.1115 Hz
  Anisotropic coupling      :     -8.1048 Hz
  Asymmetry                 :     -0.3855   
  S parameter               :      8.3031 Hz
  A parameter               :      1.6133 Hz
  Isotropic DSO contribution:     -0.9344 Hz
  Isotropic PSO contribution:      0.4885 Hz
  Isotropic SD contribution :      0.2377 Hz
  Isotropic FC contribution :     -3.9033 Hz




                           Total Coupling Tensor in Hz
                           ---------------------------

                             x              y              z

                x  -0.3683815      -1.613294     -2.6468905E-15
                y    1.613294      -2.451419     -6.6429088E-16
                z  -2.6404320E-15 -2.2023254E-15  -9.514681    

  Mass number atom 1:    2;   Abundance:   0.015 %;   g factor:   0.857438
  Mass number atom 2:    1;   Abundance:  99.985 %;   g factor:   5.585694

  Isotropic coupling        :     -4.1115 Hz
  Anisotropic coupling      :     -8.1048 Hz
  Asymmetry                 :     -0.3855   
  S parameter               :      8.3031 Hz
  A parameter               :      1.6133 Hz
  Isotropic DSO contribution:     -0.9344 Hz
  Isotropic PSO contribution:      0.4885 Hz
  Isotropic SD contribution :      0.2377 Hz
  Isotropic FC contribution :     -3.9033 Hz




                           Total Coupling Tensor in Hz
                           ---------------------------

                             x              y              z

                x  -0.3683815      -1.613294     -2.6468905E-15
                y    1.613294      -2.451419     -6.6429088E-16
                z  -2.6404320E-15 -2.2023254E-15  -9.514681    

  Mass number atom 1:    2;   Abundance:   0.015 %;   g factor:   0.857438
  Mass number atom 2:    2;   Abundance:   0.015 %;   g factor:   0.857438

  Isotropic coupling        :     -0.6311 Hz
  Anisotropic coupling      :     -1.2441 Hz
  Asymmetry                 :     -0.3855   
  S parameter               :      1.2746 Hz
  A parameter               :      0.2477 Hz
  Isotropic DSO contribution:     -0.1434 Hz
  Isotropic PSO contribution:      0.0750 Hz
  Isotropic SD contribution :      0.0365 Hz
  Isotropic FC contribution :     -0.5992 Hz




                           Total Coupling Tensor in Hz
                           ---------------------------

                             x              y              z

                x  -5.6548802E-02 -0.2476504     -4.0631379E-16
                y   0.2476504     -0.3763077     -1.0197269E-16
                z  -4.0532237E-16 -3.3807035E-16  -1.460561    


   Interatomic separations (in Angstrom):
   --------------------------------------

            O           H_a         H_b   
            ------      ------      ------
 O     :    0.000000
 H_a   :    0.972000    0.000000
 H_b   :    0.972000    1.537101    0.000000


  Max    interatomic separation is    1.5371 Angstrom (    2.9047 Bohr)
  between atoms    3 and    2, "H_b   " and "H_a   ".

  Min HX interatomic separation is    0.9720 Angstrom (    1.8368 Bohr)


  Bond distances (Angstrom):
  --------------------------

                  atom 1     atom 2       distance
                  ------     ------       --------
  bond distance:  H_a        O            0.972000
  bond distance:  H_b        O            0.972000


  Bond angles (degrees):
  ----------------------

                  atom 1     atom 2     atom 3         angle
                  ------     ------     ------         -----
  bond angle:     H_a        O          H_b          104.500


  Total CPU  time used in ABACUS:   0.37 seconds
  Total wall time used in ABACUS:   0.55 seconds


                   .-------------------------------------------.
                   | End of Static Property Section (ABACUS) - |
                   `-------------------------------------------'

  Total CPU  time used in DALTON:   0.40 seconds
  Total wall time used in DALTON:   1.75 seconds

 
     Date and time (Linux)  : Wed May  4 11:43:20 2022
     Host name              : node631                                 
