

     ************************************************************************
     *************** Dalton - An Electronic Structure Program ***************
     ************************************************************************

    This is output from DALTON release Dalton2022.0-dev (2022)
         ( Web site: http://daltonprogram.org )

   ----------------------------------------------------------------------------

    NOTE:
     
    Dalton is an experimental code for the evaluation of molecular
    properties using (MC)SCF, DFT, CI, and CC wave functions.
    The authors accept no responsibility for the performance of
    the code or for the correctness of the results.
     
    The code (in whole or part) is provided under a licence and
    is not to be reproduced for further distribution without
    the written permission of the authors or their representatives.
     
    See the home page "http://daltonprogram.org" for further information.
     
    If results obtained with this code are published,
    the appropriate citations would be both of:
     
       K. Aidas, C. Angeli, K. L. Bak, V. Bakken,
       R. Bast, L. Boman, O. Christiansen, R. Cimiraglia,
       S. Coriani, P. Dahle, E. K. Dalskov, U. Ekstroem,
       T. Enevoldsen, J. J. Eriksen, P. Ettenhuber, B. Fernandez,
       L. Ferrighi, H. Fliegl, L. Frediani, K. Hald, A. Halkier,
       C. Haettig, H. Heiberg, T. Helgaker, A. C. Hennum,
       H. Hettema, E. Hjertenaes, S. Hoest, I.-M. Hoeyvik,
       M. F. Iozzi, B. Jansik, H. J. Aa. Jensen, D. Jonsson,
       P. Joergensen, J. Kauczor, S. Kirpekar,
       T. Kjaergaard, W. Klopper, S. Knecht, R. Kobayashi, H. Koch,
       J. Kongsted, A. Krapp, K. Kristensen, A. Ligabue,
       O. B. Lutnaes, J. I. Melo, K. V. Mikkelsen, R. H. Myhre,
       C. Neiss, C. B. Nielsen, P. Norman, J. Olsen,
       J. M. H. Olsen, A. Osted, M. J. Packer, F. Pawlowski,
       T. B. Pedersen, P. F. Provasi, S. Reine, Z. Rinkevicius,
       T. A. Ruden, K. Ruud, V. Rybkin, P. Salek, C. C. M. Samson,
       A. Sanchez de Meras, T. Saue, S. P. A. Sauer,
       B. Schimmelpfennig, K. Sneskov, A. H. Steindal,
       K. O. Sylvester-Hvid, P. R. Taylor, A. M. Teale,
       E. I. Tellgren, D. P. Tew, A. J. Thorvaldsen, L. Thoegersen,
       O. Vahtras, M. A. Watson, D. J. D. Wilson, M. Ziolkowski
       and H. Agren,
       "The Dalton quantum chemistry program system",
       WIREs Comput. Mol. Sci. 2014, 4:269-284 (doi: 10.1002/wcms.1172)
     
    and
     
       Dalton, a molecular electronic structure program,
       Release Dalton2022.0-dev (2022), see http://daltonprogram.org
   ----------------------------------------------------------------------------

    Authors in alphabetical order (Major contribution(s) in parenthesis):

  Kestutis Aidas,              Vilnius University,        Lithuania   (QM/MM)
  Celestino Angeli,            University of Ferrara,     Italy       (NEVPT2)
  Juan J. Aucar,               Northeast National UniversiArgentina   (LRESC, Relativistic Effects on EFG)
  Keld L. Bak,                 UNI-C,                     Denmark     (AOSOPPA, non-adiabatic coupling, magnetic properties)
  Vebjoern Bakken,             University of Oslo,        Norway      (DALTON; geometry optimizer, symmetry detection)
  Radovan Bast,                UiT The Arctic U. of NorwayNorway      (DALTON installation and execution frameworks)
  Pablo Baudin,                University of Valencia,    Spain       (Cholesky excitation energies)
  Linus Boman,                 NTNU,                      Norway      (Cholesky decomposition and subsystems)
  Bruno N. Cabral Tenorio,     Technical Univ. of Denmark,Denmark     (Lanczos-based CC methods)
  Ove Christiansen,            Aarhus University,         Denmark     (CC module)
  Renzo Cimiraglia,            University of Ferrara,     Italy       (NEVPT2)
  Sonia Coriani,               Technical Univ. of Denmark,Denmark     (CC and RESPONS modules)
  Janusz Cukras,               University of Warsaw,      Poland      (MChD in RESPONS)
  Paal Dahle,                  University of Oslo,        Norway      (Parallelization)
  Erik K. Dalskov,             UNI-C,                     Denmark     (SOPPA)
  Thomas Enevoldsen,           Univ. of Southern Denmark, Denmark     (SOPPA)
  Janus J. Eriksen,            Aarhus University,         Denmark     (Polarizable embedding, TDA)
  Rasmus Faber,                Technical Univ. of Denmark,Denmark     (Vib.avg. NMR w. SOPPA, parallel AO-SOPPA, CVS-CC and EOMCC)
  Tobias Fahleson,             KTH Stockholm,             Sweden      (Damped cubic response)
  Berta Fernandez,             U. of Santiago de CompostelSpain       (Doublet spin, ESR in RESPONS)
  Lara Ferrighi,               Aarhus University,         Denmark     (PCM Cubic response)
  Heike Fliegl,                University of Oslo,        Norway      (CCSD(R12))
  Luca Frediani,               UiT The Arctic U. of NorwayNorway      (PCM)
  Emmanuel Fromager,           Univ. Strasbourg,          France      (MC-srDFT)
  Bin Gao,                     UiT The Arctic U. of NorwayNorway      (Gen1Int library)
  Andre S. P. Gomes,           CNRS/Universite de Lille,  France      (Frozen density embedding)
  Christof Haettig,            Ruhr-University Bochum,    Germany     (CC module)
  Kasper Hald,                 Aarhus University,         Denmark     (CC module)
  Asger Halkier,               Aarhus University,         Denmark     (CC module)
  Frederik Beyer Hansen,       University of Copenhagen,  Denmark     (Parallel AO-SOPPA)
  Erik D. Hedegaard,           Univ. of Southern Denmark, Denmark     (Polarizable embedding, QM/MM, and MC-srDFT)
  Hanne Heiberg,               University of Oslo,        Norway      (Geometry analysis, selected one-electron integrals)
  Trygve Helgaker,             University of Oslo,        Norway      (DALTON; ABACUS, ERI, DFT modules, London, and much more)
  Alf Christian Hennum,        University of Oslo,        Norway      (Parity violation)
  Hinne Hettema,               University of Auckland,    New Zealand (Quadratic response in RESPONS; SIRIUS supersymmetry)
  Andreas E. Hillers-Bendtsen, University of Copenhagen,  Denmark     (MP3)
  Eirik Hjertenaes,            NTNU,                      Norway      (Cholesky decomposition)
  Nicolai Machholdt Hoeyer,    Aarhus University,         Denmark     (MP3)
  Pi A. B. Haase,              University of Copenhagen,  Denmark     (Triplet AO-SOPPA)
  Maria Francesca Iozzi,       University of Oslo,        Norway      (RPA)
  Christoph Jacob,             TU Braunschweig            Germany     (Frozen density embedding)
  Brano Jansik,                Technical Univ. of Ostrava Czech Rep.  (DFT cubic response)
  Hans Joergen Aa. Jensen,     Univ. of Southern Denmark, Denmark     (DALTON; SIRIUS, RESPONS, ABACUS, MC-srDFT, and much more)
  Dan Jonsson,                 UiT The Arctic U. of NorwayNorway      (Cubic response in RESPONS module)
  Poul Joergensen,             Aarhus University,         Denmark     (RESPONS, ABACUS, and CC modules)
  Maciej Kaminski,             University of Warsaw,      Poland      (CPPh in RESPONS)
  Joanna Kauczor,              Linkoeping University,     Sweden      (Complex polarization propagator (CPP) module)
  Sheela Kirpekar,             Univ. of Southern Denmark, Denmark     (Mass-velocity & Darwin integrals)
  Frederik Oersted Kjeldal,    Technical Univ. of Denmark,Denmark     (MP3)
  Erik Kjellgren,              Univ. of Southern Denmark, Denmark     (MC-srDFT)
  Wim Klopper,                 KIT Karlsruhe,             Germany     (R12 code in CC, SIRIUS, and ABACUS modules)
  Stefan Knecht,               ETH Zurich,                Switzerland (Parallel CI and MCSCF, MC-srDFT)
  Rika Kobayashi,              Australian National Univ., Australia   (DIIS in CC, London in MCSCF)
  Henrik Koch,                 NTNU,                      Norway      (CC module, Cholesky decomposition)
  Jacob Kongsted,              Univ. of Southern Denmark, Denmark     (Polarizable embedding, polarizable density embedding, QM/MM)
  Andrea Ligabue,              University of Modena,      Italy       (CTOCD, AOSOPPA)
  Nanna H. List,               Univ. of Southern Denmark, Denmark     (Polarizable embedding)
  Ola B. Lutnaes,              University of Oslo,        Norway      (DFT Hessian)
  Juan I. Melo,                University of Buenos Aires,Argentina   (LRESC, Relativistic Effects on NMR Shieldings)
  Kurt V. Mikkelsen,           University of Copenhagen,  Denmark     (MC-SCRF, QM/MM, and MP3)
  Rolf H. Myhre,               NTNU,                      Norway      (Subsystems and CC3)
  Christian Neiss,             Univ. Erlangen-Nuernberg,  Germany     (CCSD(R12))
  Christian B. Nielsen,        University of Copenhagen,  Denmark     (QM/MM)
  Patrick Norman,              KTH Stockholm,             Sweden      (Cubic response and complex frequency response in RESPONS)
  Jeppe Olsen,                 Aarhus University,         Denmark     (SIRIUS CI/density modules)
  Jogvan Magnus H. Olsen,      Aarhus University,         Denmark     (Polarizable embedding and polarizable density embedding)
  Anders Osted,                Copenhagen University,     Denmark     (QM/MM)
  Martin J. Packer,            University of Sheffield,   UK          (SOPPA)
  Filip Pawlowski,             Kazimierz Wielki UniversityPoland      (CC3)
  Morten N. Pedersen,          Univ. of Southern Denmark, Denmark     (Polarizable embedding)
  Thomas B. Pedersen,          University of Oslo,        Norway      (Cholesky decomposition)
  Patricio F. Provasi,         University of Northeastern,Argentina   (Analysis of coupling constants in localized orbitals)
  Peter Reinholdt,             Univ. of Southern Denmark, Denmark     (Polarizable embedding and polarizable density embedding)
  Zilvinas Rinkevicius,        KTH Stockholm,             Sweden      (open-shell DFT, ESR)
  Elias Rudberg,               KTH Stockholm,             Sweden      (DFT grid and basis info)
  Torgeir A. Ruden,            University of Oslo,        Norway      (Numerical derivatives in ABACUS)
  Kenneth Ruud,                UiT The Arctic U. of NorwayNorway      (DALTON; ABACUS magnetic properties and much more)
  Pawel Salek,                 KTH Stockholm,             Sweden      (DALTON; DFT code)
  Claire C. M. Samson,         University of Karlsruhe    Germany     (Boys localization, r12 integrals in ERI)
  Alfredo Sanchez de Meras,    University of Valencia,    Spain       (CC module, Cholesky decomposition)
  Trond Saue,                  Paul Sabatier University,  France      (direct Fock matrix construction)
  Stephan P. A. Sauer,         University of Copenhagen,  Denmark     (SOPPA(CCSD), SOPPA prop., AOSOPPA, vibrational g-factors)
  Bernd Schimmelpfennig,       Forschungszentrum KarlsruheGermany     (AMFI module)
  Anna K. Schnack-Petersen,    University of Copenhagen,  Denmark     (RPA(D) and HRPA(D) properties in AOSOPPA)
  Kristian Sneskov,            Aarhus University,         Denmark     (Polarizable embedding, QM/MM)
  Arnfinn H. Steindal,         UiT The Arctic U. of NorwayNorway      (parallel QM/MM, polarizable embedding)
  Casper Steinmann,            Aalborg University,        Denmark     (QFIT, polarizable embedding)
  K. O. Sylvester-Hvid,        University of Copenhagen,  Denmark     (MC-SCRF)
  Peter R. Taylor,             VLSCI/Univ. of Melbourne,  Australia   (Symmetry handling ABACUS, integral transformation)
  Andrew M. Teale,             University of Nottingham,  England     (DFT-AC, DFT-D)
  David P. Tew,                University of Bristol,     England     (CCSD(R12))
  Julien Toulouse,             Sorbonne Univ.,            France      (MC-srDFT)
  Olav Vahtras,                KTH Stockholm,             Sweden      (Triplet response, spin-orbit, ESR, TDDFT, open-shell DFT)
  Lucas Visscher,              Vrije Universiteit AmsterdaNetherlands (Frozen density embedding)
  David J. Wilson,             La Trobe University,       Australia   (DFT Hessian and DFT magnetizabilities)
  Luna Zamok,                  University of Copenhagen,  Denmark     (Block Lanczos RPA solver in SOPPA module)
  Hans Agren,                  KTH Stockholm,             Sweden      (SIRIUS module, RESPONS, MC-SCRF solvation)
 --------------------------------------------------------------------------------

     Date and time (Linux)  : Thu Aug  4 21:15:46 2022
     Host name              : adm-110765.pc.sdu.dk                    

 * Work memory size             :    64000000 =  488.28 megabytes.

 * Directories for basis set searches:
   1) /home/hjj/progs/gitDalton_master/build_master-WIP2_mpi/test/energy_vwn5_openshell
   2) /home/hjj/progs/gitDalton_master/build_master-WIP2_mpi/basis


Compilation information
-----------------------

 Who compiled             | hjj
 Host                     | adm-110765.pc.sdu.dk
 System                   | Linux-5.15.0-43-generic
 CMake generator          | Unix Makefiles
 Processor                | x86_64
 64-bit integers          | OFF
 MPI                      | ON
 Fortran compiler         | /usr/bin/mpif90
 Fortran compiler version | GNU Fortran (Ubuntu 11.2.0-19ubuntu1) 11.2.0
 C compiler               | /usr/bin/mpicc
 C compiler version       | gcc (Ubuntu 11.2.0-19ubuntu1) 11.2.0
 C++ compiler             | /usr/bin/mpicxx
 C++ compiler version     | unknown
 BLAS                     | /usr/lib/x86_64-linux-gnu/libopenblas.so
 LAPACK                   | /usr/lib/x86_64-linux-gnu/liblapack.so
 Static linking           | OFF
 Last Git revision        | 95e9f3a80a0dbeaafe70e2445b4e71d3737e21d2
 Git branch               | WIP3
 Configuration time       | 2022-08-04 21:14:32.751356

 * Sequential calculation.


   Content of the .dal input file
 ----------------------------------

**DALTON INPUT
.RUN WAVE FUNCTION
.DIRECT
**INTEGRALS
*TWOINT
.DOSRINTEGRALS
.ERF
 0.00001
**WAVE FUNCTIONS
.HFSRDFT
.MP2
.MCSRDFT
.SRFUN
 NULL CVWN5
*SCF INPUT
.DOUBLY OCCUPIED
 3 1 1 0
*CI VECTOR
.SELECT
 1
*CONFIGURATION INPUT
.SYMMETRY
 2
.SPIN MUL
 3
.INACTIVE
 3 0 0 0
.ELECTRONS
 4
.CAS SPACE
 1 1 2 0
**END OF DALTON INPUT


   Content of the .mol file
 ----------------------------

ATOMBASIS
MC-srDFT Energy calculation with symmetry
Basis set specified with ATOMBASIS
    2
        8.    1      Basis=MINI(Scaled)
O     0.0 -0.2249058930 0.0
        1.    2      Bas=MINI(Scaled)
H1    1.45235 0.899623 0.0
H2   -1.45235 0.899623 0.0


       *******************************************************************
       *********** Output from DALTON general input processing ***********
       *******************************************************************

 --------------------------------------------------------------------------------
   Overall default print level:    0
   Print level for DALTON.STAT:    1

    AO-direct calculation (in sections where implemented)
    HERMIT 1- and 2-electron integral sections will be executed
    "Old" integral transformation used (limited to max 255 basis functions)
    Wave function sections will be executed (SIRIUS module)
 --------------------------------------------------------------------------------


   ****************************************************************************
   *************** Output of molecule and basis set information ***************
   ****************************************************************************


    The two title cards from your ".mol" input:
    ------------------------------------------------------------------------
 1: MC-srDFT Energy calculation with symmetry                               
 2: Basis set specified with ATOMBASIS                                      
    ------------------------------------------------------------------------

  Atomic type no.    1
  --------------------
  Nuclear charge:   8.00000
  Number of symmetry independent centers:    1
  Number of basis sets to read;    2
  The basis set is "MINI(Scaled)" from the basis set library.
  Basis set file used for this atomic type with Z =   8 :
     "/home/hjj/progs/gitDalton_master/build_master-WIP2_mpi/basis/MINI(Scaled)"

  Atomic type no.    2
  --------------------
  Nuclear charge:   1.00000
  Number of symmetry independent centers:    2
  Number of basis sets to read;    2
  The basis set is "MINI(Scaled)" from the basis set library.
  Basis set file used for this atomic type with Z =   1 :
     "/home/hjj/progs/gitDalton_master/build_master-WIP2_mpi/basis/MINI(Scaled)"


                      SYMADD: Requested addition of symmetry
                      --------------------------------------

 Symmetry test threshold:  5.00E-06

@  The molecule has been centered at center of mass and rotated
@  so the principal axes of inertia are along coordinate axes.

 Symmetry class found: C(2v)          

 Symmetry Independent Centres             
 ----------------------------
O      8 :      0.00000000     0.00000000    -0.12585150  Isotope  1
H1     1 :      0.00000000     1.45235000     0.99867739  Isotope  1

 The following symmetry elements were found:   X  Y     


                         SYMGRP: Point group information
                         -------------------------------

@    Full point group is: C(2v)          
@    Represented as:      C2v

@  * The irrep name for each symmetry:    1: A1     2: B1     3: B2     4: A2 

   * The point group was generated by:

      Reflection in the yz-plane
      Reflection in the xz-plane

   * Group multiplication table

        |  E   C2z  Oxz  Oyz
   -----+--------------------
     E  |  E   C2z  Oxz  Oyz
    C2z | C2z   E   Oyz  Oxz
    Oxz | Oxz  Oyz   E   C2z
    Oyz | Oyz  Oxz  C2z   E 

   * Character table

        |  E   C2z  Oxz  Oyz
   -----+--------------------
    A1  |   1    1    1    1
    B1  |   1   -1    1   -1
    B2  |   1   -1   -1    1
    A2  |   1    1   -1   -1

   * Direct product table

        | A1   B1   B2   A2 
   -----+--------------------
    A1  | A1   B1   B2   A2 
    B1  | B1   A1   A2   B2 
    B2  | B2   A2   A1   B1 
    A2  | A2   B2   B1   A1 


                                 Isotopic Masses
                                 ---------------

                           O          15.994915
                           H1  _1      1.007825
                           H1  _2      1.007825

                       Total mass:    18.010565 amu
                       Natural abundance:  99.730 %

 Center-of-mass coordinates (a.u.):    0.000000    0.000000    0.000000
 Center-of-mass coordinates (Angs):    0.000000    0.000000    0.000000


  Atoms and basis sets
  --------------------

  Number of atom types :    2
  Total number of atoms:    3

  label    atoms   charge   prim   cont     basis
  ----------------------------------------------------------------------
  O           1    8.0000    15     5      [6s3p|2s1p]                                        
  H1          2    1.0000     3     1      [3s|1s]                                            
  ----------------------------------------------------------------------
  total:      3   10.0000    21     7
  ----------------------------------------------------------------------

  Threshold for neglecting AO integrals:  1.00D-12


  Cartesian Coordinates (a.u.)
  ----------------------------

  Total number of coordinates:    9
  O       :     1  x   0.0000000000    2  y   0.0000000000    3  z  -0.1258515023
  H1  / 1 :     4  x   0.0000000000    5  y   1.4523500000    6  z   0.9986773907
  H1  / 2 :     7  x   0.0000000000    8  y  -1.4523500000    9  z   0.9986773907


  Symmetry Coordinates
  --------------------

  Number of coordinates in each symmetry:     3    2    3    1

  Symmetry  A1  ( 1)

    1   O     z    3
    2   H1    y    [  5  -    8 ]/2
    3   H1    z    [  6  +    9 ]/2

  Symmetry  B1  ( 2)

    4   O     x    1
    5   H1    x    [  4  +    7 ]/2

  Symmetry  B2  ( 3)

    6   O     y    2
    7   H1    y    [  5  +    8 ]/2
    8   H1    z    [  6  -    9 ]/2

  Symmetry  A2  ( 4)

    9   H1    x    [  4  -    7 ]/2


   Interatomic separations (in Angstrom):
   --------------------------------------

            O           H1  _1      H1  _2
            ------      ------      ------
 O     :    0.000000
 H1  _1:    0.972000    0.000000
 H1  _2:    0.972000    1.537101    0.000000


  Max    interatomic separation is    1.5371 Angstrom (    2.9047 Bohr)
  between atoms    3 and    2, "H1  _2" and "H1  _1".

  Min HX interatomic separation is    0.9720 Angstrom (    1.8368 Bohr)


  Bond distances (Angstrom):
  --------------------------

                  atom 1     atom 2       distance
                  ------     ------       --------
  bond distance:  H1  _1     O            0.972000
  bond distance:  H1  _2     O            0.972000


  Bond angles (degrees):
  ----------------------

                  atom 1     atom 2     atom 3         angle
                  ------     ------     ------         -----
  bond angle:     H1  _1     O          H1  _2       104.500




 Principal moments of inertia (u*A**2) and principal axes
 --------------------------------------------------------

   IA       0.633889          0.000000    1.000000    0.000000
   IB       1.190584          0.000000    0.000000    1.000000
   IC       1.824473          1.000000    0.000000    0.000000


 Rotational constants
 --------------------

@    The molecule is planar.

               A                   B                   C

         797267.3370         424479.9976         277000.0210 MHz
           26.593976           14.159129            9.239726 cm-1


@  Nuclear repulsion energy :    9.055004525638 Hartree


  Symmetry Orbitals
  -----------------

  Number of orbitals in each symmetry:           4    1    2    0


  Symmetry  A1 ( 1)

    1     O        1s         1
    2     O        1s         2
    3     O        2pz        5
    4     H1       1s         6 +    7


  Symmetry  B1 ( 2)

    5     O        2px        3


  Symmetry  B2 ( 3)

    6     O        2py        4
    7     H1       1s         6 -    7


  No orbitals in symmetry  A2 ( 4)

  Symmetries of electric field:  B1 (2)  B2 (3)  A1 (1)

  Symmetries of magnetic field:  B2 (3)  B1 (2)  A2 (4)


                     .---------------------------------------.
                     | Starting in Integral Section (HERMIT) |
                     `---------------------------------------'



 ***************************************************************************************
 ****************** Output from **INTEGRALS input processing (HERMIT) ******************
 ***************************************************************************************



    *************************************************************************
    ****************** Output from HERMIT input processing ******************
    *************************************************************************


 Default print level:        1

 Calculation of one-electron Hamiltonian integrals.

 Center of mass  (bohr):      0.000000000000      0.000000000000      0.000000000000
 Operator center (bohr):      0.000000000000      0.000000000000      0.000000000000
 Gauge origin    (bohr):      0.000000000000      0.000000000000      0.000000000000
 Dipole origin   (bohr):      0.000000000000      0.000000000000      0.000000000000
 INFO: .DOSRIN option is obsolete


  Set-up from HR2INP:
  -------------------

 Print level in TWOINT:    1

 srDFT-hybrid : Using an Erf type two-elec. operator
                with the coupling parameter :  1.00000E-05
 * Direct calculation of Fock matrices in AO-basis.
 * Program controlled screening thresholds used for this.
 * Separate density screening of Coulomb integral batches
 * Separate density screening of exchange integral batches


     ************************************************************************
     ************************** Output from HERINT **************************
     ************************************************************************



                      Nuclear contribution to dipole moments
                      --------------------------------------

                 au               Debye          C m (/(10**-30)

      z      0.99054276         2.51770841         8.39817128


  Total CPU  time used in HERMIT:   0.01 seconds
  Total wall time used in HERMIT:   0.01 seconds


                        .----------------------------------.
                        | End of Integral Section (HERMIT) |
                        `----------------------------------'



                   .--------------------------------------------.
                   | Starting in Wave Function Section (SIRIUS) |
                   `--------------------------------------------'


 mu value for srDFT is 0.00 (user input)

 *** Output from Huckel module :

     Using EWMO model:          F
     Using EHT  model:          T
     Number of Huckel orbitals each symmetry:    4    1    2    0

 Huckel EHT eigenvalues for symmetry :  1
          -20.704225      -1.499390      -0.671093      -0.296848

 Huckel EHT eigenvalues for symmetry :  2
           -0.616200

 Huckel EHT eigenvalues for symmetry :  3
           -0.731017      -0.261127

 SETCI, core memory needed for CI:
 LCINDX =         207
 LACIMX =         274
 LBCIMX =           0

 Number of determinants:             6

 Number of configurations:           5

 Time used in SETCI :      0.10s

 **********************************************************************
 *SIRIUS* a direct, restricted step, second order MCSCF program       *
 **********************************************************************

 
     Date and time (Linux)  : Thu Aug  4 21:15:46 2022
     Host name              : adm-110765.pc.sdu.dk                    

 Title lines from ".mol" input file:
     MC-srDFT Energy calculation with symmetry                               
     Basis set specified with ATOMBASIS                                      

 Print level on unit LUPRI =   2 is   0
 Print level on unit LUW4  =   2 is   5

@    MC-srDFT optimization.
@              Type: complete active space calculation (CAS).

@    This is a combination run starting with
@              a restricted, closed shell HF-srDFT hybrid calculation
@              an MP2 calculation

 Fock matrices are calculated directly without use of integrals on disk.

 Initial molecular orbitals are obtained according to
 ".MOSTART EHT   " input option

     Wave function specification
     ============================
@    Wave function type        --- MC-srDFT ---
@    Number of closed shell electrons           6
@    Number of electrons in active shells       4
@    Total charge of the molecule               0

@    Spin multiplicity and 2 M_S                3         2
@    Total number of symmetries                 4 (point group: C2v)
@    Reference state symmetry                   2 (irrep name : B1 )

@    This is a lrWFT-srDFT calculation using the 
@      NULL                    short range exchange functional
@      CVWN5                   short range correlation functional

@    sr-DFT and exact sr-HF exchange weights:    1.000000    0.000000

     Orbital specifications
     ======================
@    Abelian symmetry species          All |    1    2    3    4
@                                          |  A1   B1   B2   A2 
                                       --- |  ---  ---  ---  ---
@    Inactive orbitals                   3 |    3    0    0    0
@    Active orbitals                     4 |    1    1    2    0
@    Secondary orbitals                  0 |    0    0    0    0
@    Total number of orbitals            7 |    4    1    2    0
@    Number of basis functions           7 |    4    1    2    0

      -- Initial occupation of symmetries is determined from user input.                      
      -- Initial occupation of symmetries is :
@    Occupied SCF orbitals               5 |    3    1    1    0

     Optimization information
     ========================
@    Number of configurations                 5
@    Number of orbital rotations              3
     ------------------------------------------
@    Total number of variables                8

     Maximum number of macro iterations      25
     Maximum number of micro iterations     600
     Threshold for MCSCF gradient      1.00D-05
     Number of initial trial vectors          1
     Number of initial CI iterations         -1
     Number of simultaneous trial vectors     1

@    This calculation converges to the lowest state for the specified symmetry and spin species.

     Maximum number of NEO/NR iterations  24


 ***********************************************
 ***** DIIS acceleration of SCF iterations *****
 ***********************************************

 C1-DIIS algorithm; max error vectors =    3

 Iter      Total energy        Error norm    Delta(E)  DIIS dim.
 -----------------------------------------------------------------------------

***  INFO  GETGAB: GABSRXXX not found on AOPROPER. Regenerating.
** Atom O   
* Grid spacing
 Value chosen:  0.131
 AH =    563.73316000000000     
 RADERR =    1.0000000000000000E-013
* Inner grid point: 3.68284E-06
* Outer point:
 Value chosen:     7.417
 Constant c: 2.62690E-05
 Number of points:    96
O     1   19128      96     434
** Atom H1  
* Grid spacing
 Value chosen:  0.142
 AH =    14.068125999999999     
 RADERR =    1.0000000000000000E-013
* Inner grid point: 2.33132E-05
* Outer point:
 Value chosen:     8.165
 Constant c: 1.52850E-04
 Number of points:    77
H1    2   18274      77     434

   Number of grid points in quadrature:     37402 (100.0%)


   Ex-sr                                  0.0000000000
   Ec-sr                                 -0.6663969205
   Ex-sr + Ec-sr                         -0.6663969205
 + EJsr = sr Coulomb energy              46.9968583727
 = Total E(srDFT)                        46.3304614521


 Corrections needed for correct CI energy evaluation:
 - 0.5 Tr(Vxc-sr Dcore)                   0.3729433670
 -     Tr(Vxc-sr Dval)                    0.0000000000
 - 0.5 Tr( (Jsr+HFXFAC*Ksr) Dval )        0.0000000000
   1  Screening settings (-IFTHRS, JTDIIS, DIFDEN, times)   -5    1    F  7.59D-02  7.60D-02
@  1    -67.1066655144        2.70175D+00   -6.71D+01    1
      Virial theorem: -V/T =      1.884476
@    MULPOP   O      -0.50; H1  _1  0.25; H1  _2  0.25; 
   1  Level shift: doubly occupied orbital energies shifted by -2.00D-01
 -----------------------------------------------------------------------------

   Ex-sr                                  0.0000000000
   Ec-sr                                 -0.6575380818
   Ex-sr + Ec-sr                         -0.6575380818
 + EJsr = sr Coulomb energy              44.6779473389
 = Total E(srDFT)                        44.0204092571


 Corrections needed for correct CI energy evaluation:
 - 0.5 Tr(Vxc-sr Dcore)                   0.3682840557
 -     Tr(Vxc-sr Dval)                    0.0000000000
 - 0.5 Tr( (Jsr+HFXFAC*Ksr) Dval )        0.0000000000
   2  Screening settings (-IFTHRS, JTDIIS, DIFDEN, times)   -5    2    F  4.74D-02  4.80D-02
@  2    -67.2141825802        7.36345D-01   -1.08D-01    2
      Virial theorem: -V/T =      1.908593
@    MULPOP   O       0.21; H1  _1 -0.11; H1  _2 -0.11; 
   2  Level shift: doubly occupied orbital energies shifted by -1.00D-01
 -----------------------------------------------------------------------------

   Ex-sr                                  0.0000000000
   Ec-sr                                 -0.6636268125
   Ex-sr + Ec-sr                         -0.6636268125
 + EJsr = sr Coulomb energy              46.2546936037
 = Total E(srDFT)                        45.5910667913


 Corrections needed for correct CI energy evaluation:
 - 0.5 Tr(Vxc-sr Dcore)                   0.3714903407
 -     Tr(Vxc-sr Dval)                    0.0000000000
 - 0.5 Tr( (Jsr+HFXFAC*Ksr) Dval )        0.0000000000
   3  Screening settings (-IFTHRS, JTDIIS, DIFDEN, times)   -6    3    F  4.86D-02  4.80D-02
@  3    -67.2354805326        4.57240D-01   -2.13D-02    3
      Virial theorem: -V/T =      1.896724
@    MULPOP   O      -0.33; H1  _1  0.16; H1  _2  0.16; 
   3  Level shift: doubly occupied orbital energies shifted by -1.00D-01
 -----------------------------------------------------------------------------

   Ex-sr                                  0.0000000000
   Ec-sr                                 -0.6614181810
   Ex-sr + Ec-sr                         -0.6614181810
 + EJsr = sr Coulomb energy              45.6977589901
 = Total E(srDFT)                        45.0363408092


 Corrections needed for correct CI energy evaluation:
 - 0.5 Tr(Vxc-sr Dcore)                   0.3703274898
 -     Tr(Vxc-sr Dval)                    0.0000000000
 - 0.5 Tr( (Jsr+HFXFAC*Ksr) Dval )        0.0000000000
   4  Screening settings (-IFTHRS, JTDIIS, DIFDEN, times)   -6    4    F  4.12D-02  4.10D-02
@  4    -67.2486955984        4.42619D-02   -1.32D-02    3
      Virial theorem: -V/T =      1.901176
@    MULPOP   O      -0.14; H1  _1  0.07; H1  _2  0.07; 
   4  Level shift: doubly occupied orbital energies shifted by -2.50D-02
 -----------------------------------------------------------------------------

   Ex-sr                                  0.0000000000
   Ec-sr                                 -0.6611873044
   Ex-sr + Ec-sr                         -0.6611873044
 + EJsr = sr Coulomb energy              45.6372757856
 = Total E(srDFT)                        44.9760884812


 Corrections needed for correct CI energy evaluation:
 - 0.5 Tr(Vxc-sr Dcore)                   0.3702058721
 -     Tr(Vxc-sr Dval)                    0.0000000000
 - 0.5 Tr( (Jsr+HFXFAC*Ksr) Dval )        0.0000000000
   5  Screening settings (-IFTHRS, JTDIIS, DIFDEN, times)   -7    5    F  4.08D-02  4.10D-02
@  5    -67.2488227168        1.07843D-03   -1.27D-04    3
      Virial theorem: -V/T =      1.901544
@    MULPOP   O      -0.12; H1  _1  0.06; H1  _2  0.06; 
 -----------------------------------------------------------------------------

   Ex-sr                                  0.0000000000
   Ec-sr                                 -0.6611923343
   Ex-sr + Ec-sr                         -0.6611923343
 + EJsr = sr Coulomb energy              45.6386315722
 = Total E(srDFT)                        44.9774392379


 Corrections needed for correct CI energy evaluation:
 - 0.5 Tr(Vxc-sr Dcore)                   0.3702085221
 -     Tr(Vxc-sr Dval)                    0.0000000000
 - 0.5 Tr( (Jsr+HFXFAC*Ksr) Dval )        0.0000000000
   6  Screening settings (-IFTHRS, JTDIIS, DIFDEN, times)   -8    6    F  3.98D-02  4.00D-02
@  6    -67.2488227960        3.55581D-05   -7.92D-08    3

@ *** DIIS converged in   6 iterations !
@     Converged SCF energy, gradient:    -67.248822796037    3.56D-05
    - total time used in SIRFCK :              0.00 seconds

 --- Writing SIRIFC interface file

--------------------------------------------------------------------------------


     .----------------------------------------------------.
     | HF-srDFT KT IPs [a.u. & eV] from Koopmans' theorem |
     `----------------------------------------------------'


     HF-srDFT KT symmetry 1 ( A1 ) in point group C2v -- 2 principal poles with pole strength 1

   ============  ============  ============
      15.846626      0.321362     -0.342605
     431.208642      8.744694     -9.322749
   ============  ============  ============

     HF-srDFT KT symmetry 2 ( B1 ) in point group C2v -- 0 principal poles with pole strength 1

   ============
      -0.402523
     -10.953208
   ============

     HF-srDFT KT symmetry 3 ( B2 ) in point group C2v -- 0 principal poles with pole strength 1

   ============
      -0.050904
      -1.385169
   ============

@ Summary of HF-srDFT KT ionization potentials [eV]:

@ Symmetry 1 (A1 ) :   431.209       8.745      -9.323

@ Symmetry 2 (B1 ) :   -10.953

@ Symmetry 3 (B2 ) :    -1.385

@ Symmetry 4 (A2 ) :  No IPs in this symmetry

  === End of HF-srDFT KT output ===
--------------------------------------------------------------------------------


 CPU and wall time for SCF :       0.295       0.295


WARNING - DFT spin density is not implemented in MP2 module and is ignored.


 ----- Output from SIRIUS MP2 module -----

 Reference: H.J.Aa.Jensen, P.Jørgensen, H.Ågren, and J.Olsen,
            J. Chem. Phys. 88, 3834 (1988); 89, 5354 (1988)

 Checking that the closed shell orbitals are canonical Hartree-Fock orbitals

    Number of electrons  :   10
    Closed shell orbitals:    3    1    1    0

 Generating Fock matrix

   Ex-sr                                  0.0000000000
   Ec-sr                                 -0.6611923343
   Ex-sr + Ec-sr                         -0.6611923343
 + EJsr = sr Coulomb energy              45.6386315722
 = Total E(srDFT)                        44.9774392379


 Corrections needed for correct CI energy evaluation:
 - 0.5 Tr(Vxc-sr Dcore)                   0.3702085221
 -     Tr(Vxc-sr Dval)                    0.0000000000
 - 0.5 Tr( (Jsr+HFXFAC*Ksr) Dval )        0.0000000000

 Hartree-Fock electronic energy:         -76.303827321675
 Hartree-Fock total      energy:         -67.248822796037

 Hartree-Fock orbital energies, symmetry 1 ( A1 ),    3 occupied SCF orbitals

       -15.84662649    -0.32136160     0.34260472     0.80695054

 Hartree-Fock orbital energies, symmetry 2 ( B1 ),    1 occupied SCF orbitals

         0.40252302

 Hartree-Fock orbital energies, symmetry 3 ( B2 ),    1 occupied SCF orbitals

         0.05090402     0.88634315

    E(LUMO) :     0.80695054   (in symmetry 1)
  - E(HOMO) :     0.40252302   (in symmetry 2)
  --------------------------
    gap     :     0.40442753

---> (Re)generating AOTWOINT
---> and (re)generating AOSR2INT


     ************************************************************************
     ************************** Output from HERINT **************************
     ************************************************************************


 Threshold for neglecting two-electron integrals:  1.00D-12
 HERMIT - Number of two-electron integrals written:          78 ( 19.2% )
 HERMIT - Megabytes written:                              0.007


 Threshold for neglecting two-electron integrals:  1.00D-12
 HERMIT - Number of two-electron integrals written:         138 ( 34.0% )
 HERMIT - Megabytes written:                              0.007


 2-el. integral transformation level 5: Total CPU and WALL times (sec)       0.002       0.002

 MP2 move   0.000000 electrons to unoccupied HF orbitals


@   Short-range Hartree-Fock total energy        :           -67.2488227960
@   + MP2 contribution from long-range integrals :             0.0000000000
@   = short-range MP2 second order energy        :           -67.2488227960

 *******************************************************
 MP2-SRDFT natural orbitals: Short-range self-consistent
 contributions are NOT taken into account.
 *******************************************************

 Natural orbital occupation numbers, symmetry 1 (irrep A1 )
 Sum =     6.00000000; RHF =     6.00000000; Difference =     0.00000000

         2.00000000     2.00000000     2.00000000     0.00000000

 Natural orbital occupation numbers, symmetry 2 (irrep B1 )
 Sum =     2.00000000; RHF =     2.00000000; Difference =     0.00000000

         2.00000000

 Natural orbital occupation numbers, symmetry 3 (irrep B2 )
 Sum =     2.00000000; RHF =     2.00000000; Difference =     0.00000000

         2.00000000     0.00000000

 Time used for MP2 natural orbitals :       0.044 CPU seconds,       0.044 wall seconds.

 CPU and wall time for MP2 :       0.044       0.044


        SIRIUS MC-srDFT optimization (SIROPT)
 ================================================


 Fock matrix screening setting for SIRCNO: IFTHRS =    9

   --- OUTPUT FROM SIRCNO     Keyword = FD+NO 


   Ex-sr                                  0.0000000000
   Ec-sr                                 -0.6573732265
   Ex-sr + Ec-sr                         -0.6573732265
 + EJsr = sr Coulomb energy              44.5865408178
 = Total E(srDFT)                        43.9291675914


 Corrections needed for correct CI energy evaluation:
 - 0.5 Tr(Vxc-sr Dcore)                   0.2391330908
 -     Tr(Vxc-sr Dval)                    0.2580853091
 - 0.5 Tr( (Jsr+HFXFAC*Ksr) Dval )      -13.3475532098

 Occupations of CAS natural orbitals:

 Symmetry  1 ( irrep A1  in C2v )

   1.000000000

 Symmetry  2 ( irrep B1  in C2v )

   1.000000000

 Symmetry  3 ( irrep B2  in C2v )

   2.000000000   0.000000000


 --- MACRO ITERATION  1 ---
 --------------------------

 2-el. integral transformation level 3: Total CPU and WALL times (sec)       0.000       0.000

 Fock matrix screening setting for this macro iteration: 10^( -9)

   Ex-sr                                  0.0000000000
   Ec-sr                                 -0.6437141610
   Ex-sr + Ec-sr                         -0.6437141610
 + EJsr = sr Coulomb energy              44.5865408178
 = Total E(srDFT)                        43.9428266568


 Corrections needed for correct CI energy evaluation:
 - 0.5 Tr(Vxc-sr Dcore)                   0.2419919064
 -     Tr(Vxc-sr Dval)                    0.2656653747
 - 0.5 Tr( (Jsr+HFXFAC*Ksr) Dval )      -13.3475532098

 Total MC-srDFT energy    :           -66.709232258031520  (MACRO    1)

 - Nuclear repulsion      :             9.055004525637894
 - Inactive energy        :           -63.408724791411991
 - Active energy          :             1.128098097464656
 - srDFT effective energy :           -13.483610089722083

 Norm of total gradient   :             0.365088123508
 -    of CI gradient      :             0.340096035303
 -    of orbital gradient :             0.132755507223
      Virial theorem: -V/T =      1.882154
@    MULPOP   O       0.44; H1  _1 -0.22; H1  _2 -0.22; 

 Residual norm when dim(red L) =   4
 NEO root     CSF        orbital          total
    1     0.00294363     0.00595513     0.00664293 converged

 (NEONEX) NEO vector is converged.

   --- OUTPUT FROM SIRCNO     Keyword = FD+NO 


   Ex-sr                                  0.0000000000
   Ec-sr                                 -0.6596667778
   Ex-sr + Ec-sr                         -0.6596667778
 + EJsr = sr Coulomb energy              45.2344281439
 = Total E(srDFT)                        44.5747613661


 Corrections needed for correct CI energy evaluation:
 - 0.5 Tr(Vxc-sr Dcore)                   0.2395926905
 -     Tr(Vxc-sr Dval)                    0.2595778054
 - 0.5 Tr( (Jsr+HFXFAC*Ksr) Dval )      -13.6681873380

 Occupations of CAS natural orbitals:

 Symmetry  1 ( irrep A1  in C2v )

   1.000000000

 Symmetry  2 ( irrep B1  in C2v )

   1.000000000

 Symmetry  3 ( irrep B2  in C2v )

   1.999941610   0.000058390


 --- MACRO ITERATION  2 ---
 --------------------------

 2-el. integral transformation level 3: Total CPU and WALL times (sec)       0.000       0.000

 Fock matrix screening setting for this macro iteration: 10^( -9)

   Ex-sr                                  0.0000000000
   Ec-sr                                 -0.6460794021
   Ex-sr + Ec-sr                         -0.6460794021
 + EJsr = sr Coulomb energy              45.2344281439
 = Total E(srDFT)                        44.5883487418


 Corrections needed for correct CI energy evaluation:
 - 0.5 Tr(Vxc-sr Dcore)                   0.2424002955
 -     Tr(Vxc-sr Dval)                    0.2671157509
 - 0.5 Tr( (Jsr+HFXFAC*Ksr) Dval )      -13.6681873380

 Total MC-srDFT energy    :           -66.730165697590351  (MACRO    2)

 - Nuclear repulsion      :             9.055004525637894
 - Inactive energy        :           -63.239503829130499
 - Active energy          :             1.259084299551222
 - srDFT effective energy :           -13.804750693648973

 Norm of total gradient   :             0.022593749905
 -    of CI gradient      :             0.021732652648
 -    of orbital gradient :             0.006178134316
      Virial theorem: -V/T =      1.877813
@    MULPOP   O       0.22; H1  _1 -0.11; H1  _2 -0.11; 

 Residual norm when dim(red L) =   6
 NEO root     CSF        orbital          total
    1     0.00000762     0.00001943     0.00002087 converged

 (NEONEX) NEO vector is converged.

   --- OUTPUT FROM SIRCNO     Keyword = FD+NO 


   Ex-sr                                  0.0000000000
   Ec-sr                                 -0.6596005134
   Ex-sr + Ec-sr                         -0.6596005134
 + EJsr = sr Coulomb energy              45.2159668945
 = Total E(srDFT)                        44.5563663811


 Corrections needed for correct CI energy evaluation:
 - 0.5 Tr(Vxc-sr Dcore)                   0.2395991114
 -     Tr(Vxc-sr Dval)                    0.2594952784
 - 0.5 Tr( (Jsr+HFXFAC*Ksr) Dval )      -13.6539654765

 Occupations of CAS natural orbitals:

 Symmetry  1 ( irrep A1  in C2v )

   1.000000000

 Symmetry  2 ( irrep B1  in C2v )

   1.000000000

 Symmetry  3 ( irrep B2  in C2v )

   1.999998084   0.000001916


 --- MACRO ITERATION  3 ---
 --------------------------

 2-el. integral transformation level 3: Total CPU and WALL times (sec)       0.000       0.000

 Fock matrix screening setting for this macro iteration: 10^( -9)

   Ex-sr                                  0.0000000000
   Ec-sr                                 -0.6460168264
   Ex-sr + Ec-sr                         -0.6460168264
 + EJsr = sr Coulomb energy              45.2159668945
 = Total E(srDFT)                        44.5699500681


 Corrections needed for correct CI energy evaluation:
 - 0.5 Tr(Vxc-sr Dcore)                   0.2424059411
 -     Tr(Vxc-sr Dval)                    0.2670326340
 - 0.5 Tr( (Jsr+HFXFAC*Ksr) Dval )      -13.6539654765

 Total MC-srDFT energy    :           -66.730243977847365  (MACRO    3)

 - Nuclear repulsion      :             9.055004525637894
 - Inactive energy        :           -63.249250305072863
 - Active energy          :             1.254545529492115
 - srDFT effective energy :           -13.790543727904520

 Norm of total gradient   :             0.000058813695
 -    of CI gradient      :             0.000054934914
 -    of orbital gradient :             0.000021004903
      Virial theorem: -V/T =      1.877949
@    MULPOP   O       0.22; H1  _1 -0.11; H1  _2 -0.11; 

 Residual norm when dim(red L) =   4
 NEO root     CSF        orbital          total
    1     0.00000526     0.00000053     0.00000529 converged

 (NEONEX) NEO vector is converged.

   --- OUTPUT FROM SIRCNO     Keyword = FD+NO 


   Ex-sr                                  0.0000000000
   Ec-sr                                 -0.6596001973
   Ex-sr + Ec-sr                         -0.6596001973
 + EJsr = sr Coulomb energy              45.2158774324
 = Total E(srDFT)                        44.5562772351


 Corrections needed for correct CI energy evaluation:
 - 0.5 Tr(Vxc-sr Dcore)                   0.2395990850
 -     Tr(Vxc-sr Dval)                    0.2594949987
 - 0.5 Tr( (Jsr+HFXFAC*Ksr) Dval )      -13.6539124654

 Occupations of CAS natural orbitals:

 Symmetry  1 ( irrep A1  in C2v )

   1.000000000

 Symmetry  2 ( irrep B1  in C2v )

   1.000000000

 Symmetry  3 ( irrep B2  in C2v )

   1.999998085   0.000001915


 --- MACRO ITERATION  4 ---
 --------------------------

 2-el. integral transformation level 3: Total CPU and WALL times (sec)       0.000       0.000

 Fock matrix screening setting for this macro iteration: 10^( -9)

   Ex-sr                                  0.0000000000
   Ec-sr                                 -0.6460165327
   Ex-sr + Ec-sr                         -0.6460165327
 + EJsr = sr Coulomb energy              45.2158774324
 = Total E(srDFT)                        44.5698608997


 Corrections needed for correct CI energy evaluation:
 - 0.5 Tr(Vxc-sr Dcore)                   0.2424059173
 -     Tr(Vxc-sr Dval)                    0.2670323253
 - 0.5 Tr( (Jsr+HFXFAC*Ksr) Dval )      -13.6539124654

 Total MC-srDFT energy    :           -66.730243978390519  (MACRO    4)

 - Nuclear repulsion      :             9.055004525637894
 - Inactive energy        :           -63.249282319013105
 - Active energy          :             1.254524570541039
 - srDFT effective energy :           -13.790490755556352

 Norm of total gradient   :             0.000005285902
 -    of CI gradient      :             0.000005258943
 -    of orbital gradient :             0.000000533181
      Virial theorem: -V/T =      1.877949
@    MULPOP   O       0.22; H1  _1 -0.11; H1  _2 -0.11; 

 (SIRSTP) Energy difference;
 actual, predicted and ratio:  -0.000000000543153  -0.000000000543111    1.000077
 Close to convergence, ratio set to one.

 *** Optimization control: MC-srDFT converged ***
     Number of macro iterations used            4
     Number of micro iterations used           11
     Total number of CPU seconds used         1.83
     Total WALL time used (seconds)           1.84

--------------------------------------------------------------------------------


     .------------------------------------------------------------------.
     | MC-srDFT EKT IPs [a.u. & eV], pole strengths, and Dyson orbitals |
     `------------------------------------------------------------------'


     MC-srDFT EKT symmetry 1 ( A1 ) in point group C2v -- 2 principal poles

   ============  ============  ============  ============
      15.890798      0.323376     -0.878526     -0.249517
     432.410614      8.799507    -23.905900     -6.789700
   ------------  ------------  ------------  ------------
       1.000000      0.999994     -0.500006     -1.000000
   ============  ============  ============  ============
       1.000000      0.000019      0.000135      0.000000
       0.000019     -0.999994      0.003559     -0.000238
      -0.000000     -0.000239     -0.000299      1.000000
       0.000095     -0.002517     -0.707102     -0.000212
   ============  ============  ============  ============

     MC-srDFT EKT symmetry 2 ( B1 ) in point group C2v -- 0 principal poles

   ============
      -0.274746
      -7.476230
   ------------
      -0.500000
   ============
       0.707107
   ============

     MC-srDFT EKT symmetry 3 ( B2 ) in point group C2v -- 0 principal poles

   ============  ============
      -0.077575     -0.063020
      -2.110919     -1.714871
   ------------  ------------
      -0.127943     -0.872057
   ============  ============
       0.357690     -0.933840
      -0.000914     -0.000350
   ============  ============

@ Summary of MC-srDFT EKT ionization potentials [eV] and pole strengths:

@ Symmetry 1 (A1 ) :   432.411       8.800     -23.906      -6.790
@ Pole strengths   :     1.000       1.000      -0.500      -1.000

@ Symmetry 2 (B1 ) :    -7.476
@ Pole strengths   :    -0.500

@ Symmetry 3 (B2 ) :    -2.111      -1.715
@ Pole strengths   :    -0.128      -0.872

@ Symmetry 4 (A2 ) :  No IPs in this symmetry

  === End of MC-srDFT EKT output ===
--------------------------------------------------------------------------------


 CPU and wall time for MCSCF :       1.831       1.840


                     .----------------------------------------.
                     | --- SIRIUS OPTIMIZATION STATISTICS --- |
                     `----------------------------------------'


 
     Date and time (Linux)  : Thu Aug  4 21:15:48 2022
     Host name              : adm-110765.pc.sdu.dk                    


  ITER ITMIC     EMCSCF           GRDNRM        RATIO      STPLNG
 ---------------------------------------------------------------------
    1    3    -66.709232258032   0.3650881235  0.000000   0.1212765659
    2    5    -66.730165697590   0.0225937499  0.971533   0.0073507076
    3    3    -66.730243977847   0.0000588137  1.001264   0.0000194179
    4    0    -66.730243978391   0.0000052859  1.000000   0.0000000000


  ITER  INDGCM  GCIMAX      GCINRM     INDGOM  GOBMAX      GOBNRM      GRDNRM
 ------------------------------------------------------------------------------
    1      3    0.276954    0.340096      2    0.099364    0.132756    0.365088
    2      2    0.017896    0.021733      1   -0.005617    0.006178    0.022594
    3      3   -0.000041    0.000055      1   -0.000015    0.000021    0.000059
    4      5    0.000005    0.000005      1   -0.000000    0.000001    0.000005


  ITER ITMIC NCLIN NOLIN   TIMMAC    TIMITR    TIMMIC    TIMLIN    TIMMIC/ITMIC
 ------------------------------------------------------------------------------

    1     3     2     1      0.53      0.00      0.42      0.36      0.14
    2     5     3     2      0.71      0.00      0.62      0.56      0.12
    3     3     2     1      0.46      0.00      0.38      0.32      0.13
    4     0     0     0      0.08      0.00      0.00      0.00


 ITER         EMY                 EACTIV              EMCSCF

    1    -76.892334881134      1.128098097465    -66.709232258032
    2    -77.044254522779      1.259084299551    -66.730165697590
    3    -77.039794032977      1.254545529492    -66.730243977847
    4    -77.039773074569      1.254524570541    -66.730243978391


 ITER         DEPRED              DEACT               RATIO

    1      0.000000000000      0.000000000000      0.000000000000
    2     -0.021546807155     -0.020933439559      0.971533248893
    3     -0.000078181462     -0.000078280257      1.001263657442
    4     -0.000000000543     -0.000000000543      1.000000000000


 ITER    BETA           GAMMA             STPLNG              RTRUST

    1      0.20000000  1.00000000      0.121276565898      0.700000000000
    2      0.20000000  1.00000000      0.007350707606      0.700000000000
    3      0.20000000  1.00000000      0.000019417877      0.700000000000
    4      0.00000000  0.00000000      0.000000000000      0.700000000000


 Reduced L root no.  1
 ITER         EVAL              EVEC(1)           EVEC(2)           EVEC(3)
 ----------------------------------------------------------------------------
    1   -0.001722731055    0.999705969623   -0.023688757590   -0.004533328099
    2   -0.000006254503    0.999998919344   -0.000908644213   -0.000357330669
    3   -0.000000000043    0.999999999992   -0.000003702548   -0.000001104814
    4    0.000000000000    0.000000000000    0.000000000000    0.000000000000


                       .-----------------------------------.
                       | --- Final results from SIRIUS --- |
                       `-----------------------------------'


@    Spin multiplicity:           3
@    Spatial symmetry:            2 ( irrep  B1  in C2v )
@    Total charge of molecule:    0

@    This was an MC-srDFT calculation with mu =   0.000
@    State number:                1

@    Final MC-SRDFT energy:       -66.730243978391                 
@    Nuclear repulsion:             9.055004525638
@    Electronic energy:           -75.785248504028

@    Final gradient norm:           0.000005285902

 
     Date and time (Linux)  : Thu Aug  4 21:15:48 2022
     Host name              : adm-110765.pc.sdu.dk                    

 Occupancies of natural orbitals
 -------------------------------

 Symmetry 1  ( A1 ) -- Total occupation in this symmetry is   7.000000000

   2.000000000   2.000000000   2.000000000   1.000000000

  Effective numbers of unpaired electrons this symmetry Eqs. 1) and 2):  1.00  1.00

 Symmetry 2  ( B1 ) -- Total occupation in this symmetry is   1.000000000

   1.000000000

  Effective numbers of unpaired electrons this symmetry Eqs. 1) and 2):  1.00  1.00

 Symmetry 3  ( B2 ) -- Total occupation in this symmetry is   2.000000000

   1.999998085   0.000001915

  Effective numbers of unpaired electrons this symmetry Eqs. 1) and 2):  0.00  0.00

 Symmetry 4  ( A2 ) -- No occupied orbitals

  Total effective number of unpaired electrons :
  Eq. 1) sum(i) [(2 - n_i) n_i]    =  2.0000
  Eq. 2) sum(i) [(2 - n_i) n_i]**2 =  2.0000
 (Reference: M. Head-Gordon, Chemical Physics Letters 372 (2003) 508-511)

File label for MO orbitals:   4Aug22   (CNOORB)

 (Only coefficients > 0.0100 are printed.)

 Molecular orbitals for symmetry species 1  (A1 )
 ------------------------------------------------

    Orbital         1        2        3        4
   1 O   :1s     0.9819  -0.2276   0.1112   0.1588
   2 O   :1s     0.0864   0.7367  -0.5172  -0.9672
   3 O   :2pz    0.0127   0.1095   0.8020  -0.7492
   4 H1  :1s    -0.0230   0.2299   0.2234   0.8185

 Molecular orbitals for symmetry species 2  (B1 )
 ------------------------------------------------

    Orbital         1
   1 O   :2px    1.0000

 Molecular orbitals for symmetry species 3  (B2 )
 ------------------------------------------------

    Orbital         1        2
   1 O   :2py    0.6467  -1.0083
   2 H1  :1s     0.3912   0.8819

 Printout of CI-coefficients abs greater than 0.05000 for root  1
 *** NOTE: this root is the reference state ***

 Printout of coefficients in interval  3.1623E-01 to  1.0000E+00
 ===============================================================

  Coefficient of CSF no.         1 is      0.99999904    9.99999043E-01
  Orbital          3   1   2
  Spin coupling    2   1   1

 Printout of coefficients in interval  1.0000E-01 to  3.1623E-01
 ===============================================================
   ( no coefficients )

 Printout of coefficients in interval  5.0000E-02 to  1.0000E-01
 ===============================================================
   ( no coefficients )

 Norm of printed CI vector ..      0.99999809

 Magnitude of CI coefficients
 ============================
 ( Ranges are relative to norm of vector :  1.00E+00 )

  10- 1 to 10- 0         1    0.99999809E+00      0.9999980850
  10- 3 to 10- 2         1    0.12766400E-05      0.9999993617
  10- 4 to 10- 3         1    0.63831999E-06      1.0000000000
  10- 6 to 10- 5         1    0.13681674E-11      1.0000000000
  10- 7 to 10- 6         1    0.91506189E-13      1.0000000000
  Number of coefficients less than 10^-11 times norm is            0

  Total CPU  time used in SIRIUS :   2.17 seconds
  Total wall time used in SIRIUS :   2.64 seconds

 
     Date and time (Linux)  : Thu Aug  4 21:15:48 2022
     Host name              : adm-110765.pc.sdu.dk                    

 NOTE:    1 warnings have been issued.
 Check output, result, and error files for "WARNING".


                     .---------------------------------------.
                     | End of Wave Function Section (SIRIUS) |
                     `---------------------------------------'

  Total CPU  time used in DALTON:   2.19 seconds
  Total wall time used in DALTON:   2.66 seconds

 
     Date and time (Linux)  : Thu Aug  4 21:15:48 2022
     Host name              : adm-110765.pc.sdu.dk                    
