

     ************************************************************************
     *************** Dalton - An Electronic Structure Program ***************
     ************************************************************************

    This is output from DALTON release Dalton2022.0-dev (2022)
         ( Web site: http://daltonprogram.org )

   ----------------------------------------------------------------------------

    NOTE:
     
    Dalton is an experimental code for the evaluation of molecular
    properties using (MC)SCF, DFT, CI, and CC wave functions.
    The authors accept no responsibility for the performance of
    the code or for the correctness of the results.
     
    The code (in whole or part) is provided under a licence and
    is not to be reproduced for further distribution without
    the written permission of the authors or their representatives.
     
    See the home page "http://daltonprogram.org" for further information.
     
    If results obtained with this code are published,
    the appropriate citations would be both of:
     
       K. Aidas, C. Angeli, K. L. Bak, V. Bakken,
       R. Bast, L. Boman, O. Christiansen, R. Cimiraglia,
       S. Coriani, P. Dahle, E. K. Dalskov, U. Ekstroem,
       T. Enevoldsen, J. J. Eriksen, P. Ettenhuber, B. Fernandez,
       L. Ferrighi, H. Fliegl, L. Frediani, K. Hald, A. Halkier,
       C. Haettig, H. Heiberg, T. Helgaker, A. C. Hennum,
       H. Hettema, E. Hjertenaes, S. Hoest, I.-M. Hoeyvik,
       M. F. Iozzi, B. Jansik, H. J. Aa. Jensen, D. Jonsson,
       P. Joergensen, J. Kauczor, S. Kirpekar,
       T. Kjaergaard, W. Klopper, S. Knecht, R. Kobayashi, H. Koch,
       J. Kongsted, A. Krapp, K. Kristensen, A. Ligabue,
       O. B. Lutnaes, J. I. Melo, K. V. Mikkelsen, R. H. Myhre,
       C. Neiss, C. B. Nielsen, P. Norman, J. Olsen,
       J. M. H. Olsen, A. Osted, M. J. Packer, F. Pawlowski,
       T. B. Pedersen, P. F. Provasi, S. Reine, Z. Rinkevicius,
       T. A. Ruden, K. Ruud, V. Rybkin, P. Salek, C. C. M. Samson,
       A. Sanchez de Meras, T. Saue, S. P. A. Sauer,
       B. Schimmelpfennig, K. Sneskov, A. H. Steindal,
       K. O. Sylvester-Hvid, P. R. Taylor, A. M. Teale,
       E. I. Tellgren, D. P. Tew, A. J. Thorvaldsen, L. Thoegersen,
       O. Vahtras, M. A. Watson, D. J. D. Wilson, M. Ziolkowski
       and H. Agren,
       "The Dalton quantum chemistry program system",
       WIREs Comput. Mol. Sci. 2014, 4:269-284 (doi: 10.1002/wcms.1172)
     
    and
     
       Dalton, a molecular electronic structure program,
       Release Dalton2022.0-dev (2022), see http://daltonprogram.org
   ----------------------------------------------------------------------------

    Authors in alphabetical order (Major contribution(s) in parenthesis):

  Kestutis Aidas,              Vilnius University,        Lithuania   (QM/MM)
  Celestino Angeli,            University of Ferrara,     Italy       (NEVPT2)
  Juan J. Aucar,               Northeast National UniversiArgentina   (LRESC, Relativistic Effects on EFG)
  Keld L. Bak,                 UNI-C,                     Denmark     (AOSOPPA, non-adiabatic coupling, magnetic properties)
  Vebjoern Bakken,             University of Oslo,        Norway      (DALTON; geometry optimizer, symmetry detection)
  Radovan Bast,                UiT The Arctic U. of NorwayNorway      (DALTON installation and execution frameworks)
  Pablo Baudin,                University of Valencia,    Spain       (Cholesky excitation energies)
  Linus Boman,                 NTNU,                      Norway      (Cholesky decomposition and subsystems)
  Bruno N. Cabral Tenorio,     Technical Univ. of Denmark,Denmark     (Lanczos-based CC methods)
  Ove Christiansen,            Aarhus University,         Denmark     (CC module)
  Renzo Cimiraglia,            University of Ferrara,     Italy       (NEVPT2)
  Sonia Coriani,               Technical Univ. of Denmark,Denmark     (CC and RESPONS modules)
  Janusz Cukras,               University of Warsaw,      Poland      (MChD in RESPONS)
  Paal Dahle,                  University of Oslo,        Norway      (Parallelization)
  Erik K. Dalskov,             UNI-C,                     Denmark     (SOPPA)
  Thomas Enevoldsen,           Univ. of Southern Denmark, Denmark     (SOPPA)
  Janus J. Eriksen,            Aarhus University,         Denmark     (Polarizable embedding, TDA)
  Rasmus Faber,                Technical Univ. of Denmark,Denmark     (Vib.avg. NMR w. SOPPA, parallel AO-SOPPA, CVS-CC and EOMCC)
  Tobias Fahleson,             KTH Stockholm,             Sweden      (Damped cubic response)
  Berta Fernandez,             U. of Santiago de CompostelSpain       (Doublet spin, ESR in RESPONS)
  Lara Ferrighi,               Aarhus University,         Denmark     (PCM Cubic response)
  Heike Fliegl,                University of Oslo,        Norway      (CCSD(R12))
  Luca Frediani,               UiT The Arctic U. of NorwayNorway      (PCM)
  Emmanuel Fromager,           Univ. Strasbourg,          France      (MC-srDFT)
  Bin Gao,                     UiT The Arctic U. of NorwayNorway      (Gen1Int library)
  Andre S. P. Gomes,           CNRS/Universite de Lille,  France      (Frozen density embedding)
  Christof Haettig,            Ruhr-University Bochum,    Germany     (CC module)
  Kasper Hald,                 Aarhus University,         Denmark     (CC module)
  Asger Halkier,               Aarhus University,         Denmark     (CC module)
  Frederik Beyer Hansen,       University of Copenhagen,  Denmark     (Parallel AO-SOPPA)
  Erik D. Hedegaard,           Univ. of Southern Denmark, Denmark     (Polarizable embedding, QM/MM, and MC-srDFT)
  Hanne Heiberg,               University of Oslo,        Norway      (Geometry analysis, selected one-electron integrals)
  Trygve Helgaker,             University of Oslo,        Norway      (DALTON; ABACUS, ERI, DFT modules, London, and much more)
  Alf Christian Hennum,        University of Oslo,        Norway      (Parity violation)
  Hinne Hettema,               University of Auckland,    New Zealand (Quadratic response in RESPONS; SIRIUS supersymmetry)
  Andreas E. Hillers-Bendtsen, University of Copenhagen,  Denmark     (MP3)
  Eirik Hjertenaes,            NTNU,                      Norway      (Cholesky decomposition)
  Nicolai Machholdt Hoeyer,    Aarhus University,         Denmark     (MP3)
  Pi A. B. Haase,              University of Copenhagen,  Denmark     (Triplet AO-SOPPA)
  Maria Francesca Iozzi,       University of Oslo,        Norway      (RPA)
  Christoph Jacob,             TU Braunschweig            Germany     (Frozen density embedding)
  Brano Jansik,                Technical Univ. of Ostrava Czech Rep.  (DFT cubic response)
  Hans Joergen Aa. Jensen,     Univ. of Southern Denmark, Denmark     (DALTON; SIRIUS, RESPONS, ABACUS, MC-srDFT, and much more)
  Dan Jonsson,                 UiT The Arctic U. of NorwayNorway      (Cubic response in RESPONS module)
  Poul Joergensen,             Aarhus University,         Denmark     (RESPONS, ABACUS, and CC modules)
  Maciej Kaminski,             University of Warsaw,      Poland      (CPPh in RESPONS)
  Joanna Kauczor,              Linkoeping University,     Sweden      (Complex polarization propagator (CPP) module)
  Sheela Kirpekar,             Univ. of Southern Denmark, Denmark     (Mass-velocity & Darwin integrals)
  Frederik Oersted Kjeldal,    Technical Univ. of Denmark,Denmark     (MP3)
  Erik Kjellgren,              Univ. of Southern Denmark, Denmark     (MC-srDFT)
  Wim Klopper,                 KIT Karlsruhe,             Germany     (R12 code in CC, SIRIUS, and ABACUS modules)
  Stefan Knecht,               ETH Zurich,                Switzerland (Parallel CI and MCSCF, MC-srDFT)
  Rika Kobayashi,              Australian National Univ., Australia   (DIIS in CC, London in MCSCF)
  Henrik Koch,                 NTNU,                      Norway      (CC module, Cholesky decomposition)
  Jacob Kongsted,              Univ. of Southern Denmark, Denmark     (Polarizable embedding, polarizable density embedding, QM/MM)
  Andrea Ligabue,              University of Modena,      Italy       (CTOCD, AOSOPPA)
  Nanna H. List,               Univ. of Southern Denmark, Denmark     (Polarizable embedding)
  Ola B. Lutnaes,              University of Oslo,        Norway      (DFT Hessian)
  Juan I. Melo,                University of Buenos Aires,Argentina   (LRESC, Relativistic Effects on NMR Shieldings)
  Kurt V. Mikkelsen,           University of Copenhagen,  Denmark     (MC-SCRF, QM/MM, and MP3)
  Rolf H. Myhre,               NTNU,                      Norway      (Subsystems and CC3)
  Christian Neiss,             Univ. Erlangen-Nuernberg,  Germany     (CCSD(R12))
  Christian B. Nielsen,        University of Copenhagen,  Denmark     (QM/MM)
  Patrick Norman,              KTH Stockholm,             Sweden      (Cubic response and complex frequency response in RESPONS)
  Jeppe Olsen,                 Aarhus University,         Denmark     (SIRIUS CI/density modules)
  Jogvan Magnus H. Olsen,      Aarhus University,         Denmark     (Polarizable embedding and polarizable density embedding)
  Anders Osted,                Copenhagen University,     Denmark     (QM/MM)
  Martin J. Packer,            University of Sheffield,   UK          (SOPPA)
  Filip Pawlowski,             Kazimierz Wielki UniversityPoland      (CC3)
  Morten N. Pedersen,          Univ. of Southern Denmark, Denmark     (Polarizable embedding)
  Thomas B. Pedersen,          University of Oslo,        Norway      (Cholesky decomposition)
  Patricio F. Provasi,         University of Northeastern,Argentina   (Analysis of coupling constants in localized orbitals)
  Peter Reinholdt,             Univ. of Southern Denmark, Denmark     (Polarizable embedding and polarizable density embedding)
  Zilvinas Rinkevicius,        KTH Stockholm,             Sweden      (open-shell DFT, ESR)
  Elias Rudberg,               KTH Stockholm,             Sweden      (DFT grid and basis info)
  Torgeir A. Ruden,            University of Oslo,        Norway      (Numerical derivatives in ABACUS)
  Kenneth Ruud,                UiT The Arctic U. of NorwayNorway      (DALTON; ABACUS magnetic properties and much more)
  Pawel Salek,                 KTH Stockholm,             Sweden      (DALTON; DFT code)
  Claire C. M. Samson,         University of Karlsruhe    Germany     (Boys localization, r12 integrals in ERI)
  Alfredo Sanchez de Meras,    University of Valencia,    Spain       (CC module, Cholesky decomposition)
  Trond Saue,                  Paul Sabatier University,  France      (direct Fock matrix construction)
  Stephan P. A. Sauer,         University of Copenhagen,  Denmark     (SOPPA(CCSD), SOPPA prop., AOSOPPA, vibrational g-factors)
  Bernd Schimmelpfennig,       Forschungszentrum KarlsruheGermany     (AMFI module)
  Anna K. Schnack-Petersen,    University of Copenhagen,  Denmark     (RPA(D) and HRPA(D) properties in AOSOPPA)
  Kristian Sneskov,            Aarhus University,         Denmark     (Polarizable embedding, QM/MM)
  Arnfinn H. Steindal,         UiT The Arctic U. of NorwayNorway      (parallel QM/MM, polarizable embedding)
  Casper Steinmann,            Aalborg University,        Denmark     (QFIT, polarizable embedding)
  K. O. Sylvester-Hvid,        University of Copenhagen,  Denmark     (MC-SCRF)
  Peter R. Taylor,             VLSCI/Univ. of Melbourne,  Australia   (Symmetry handling ABACUS, integral transformation)
  Andrew M. Teale,             University of Nottingham,  England     (DFT-AC, DFT-D)
  David P. Tew,                University of Bristol,     England     (CCSD(R12))
  Julien Toulouse,             Sorbonne Univ.,            France      (MC-srDFT)
  Olav Vahtras,                KTH Stockholm,             Sweden      (Triplet response, spin-orbit, ESR, TDDFT, open-shell DFT)
  Lucas Visscher,              Vrije Universiteit AmsterdaNetherlands (Frozen density embedding)
  David J. Wilson,             La Trobe University,       Australia   (DFT Hessian and DFT magnetizabilities)
  Luna Zamok,                  University of Copenhagen,  Denmark     (Block Lanczos RPA solver in SOPPA module)
  Hans Agren,                  KTH Stockholm,             Sweden      (SIRIUS module, RESPONS, MC-SCRF solvation)
 --------------------------------------------------------------------------------

     Date and time (Linux)  : Thu Aug  4 21:15:46 2022
     Host name              : adm-110765.pc.sdu.dk                    

 * Work memory size             :    64000000 =  488.28 megabytes.

 * Directories for basis set searches:
   1) /home/hjj/progs/gitDalton_master/build_master-WIP2_mpi/test/energy_lrcwpbe_openshell
   2) /home/hjj/progs/gitDalton_master/build_master-WIP2_mpi/basis


Compilation information
-----------------------

 Who compiled             | hjj
 Host                     | adm-110765.pc.sdu.dk
 System                   | Linux-5.15.0-43-generic
 CMake generator          | Unix Makefiles
 Processor                | x86_64
 64-bit integers          | OFF
 MPI                      | ON
 Fortran compiler         | /usr/bin/mpif90
 Fortran compiler version | GNU Fortran (Ubuntu 11.2.0-19ubuntu1) 11.2.0
 C compiler               | /usr/bin/mpicc
 C compiler version       | gcc (Ubuntu 11.2.0-19ubuntu1) 11.2.0
 C++ compiler             | /usr/bin/mpicxx
 C++ compiler version     | unknown
 BLAS                     | /usr/lib/x86_64-linux-gnu/libopenblas.so
 LAPACK                   | /usr/lib/x86_64-linux-gnu/liblapack.so
 Static linking           | OFF
 Last Git revision        | 95e9f3a80a0dbeaafe70e2445b4e71d3737e21d2
 Git branch               | WIP3
 Configuration time       | 2022-08-04 21:14:32.751356

 * Sequential calculation.


   Content of the .dal input file
 ----------------------------------

**DALTON INPUT
.RUN WAVE FUNCTION
.DIRECT
**INTEGRALS
*TWOINT
.DOSRINTEGRALS
.ERF
 0.3
**WAVE FUNCTIONS
.HFSRDFT
.MP2
.MCSRDFT
.SRFUN
 LRCWPBE CPBE
*SCF INPUT
.DOUBLY OCCUPIED
 3 1 1 0
*CI VECTOR
.SELECT
 1
*CONFIGURATION INPUT
.SYMMETRY
 2
.SPIN MUL
 3
.INACTIVE
 3 0 0 0
.ELECTRONS
 4
.CAS SPACE
 1 1 2 0
**END OF DALTON INPUT


   Content of the .mol file
 ----------------------------

ATOMBASIS
MC-srDFT Energy calculation with symmetry
Basis set specified with ATOMBASIS
    2
        8.    1      Basis=MINI(Scaled)
O     0.0 -0.2249058930 0.0
        1.    2      Bas=MINI(Scaled)
H1    1.45235 0.899623 0.0
H2   -1.45235 0.899623 0.0


       *******************************************************************
       *********** Output from DALTON general input processing ***********
       *******************************************************************

 --------------------------------------------------------------------------------
   Overall default print level:    0
   Print level for DALTON.STAT:    1

    AO-direct calculation (in sections where implemented)
    HERMIT 1- and 2-electron integral sections will be executed
    "Old" integral transformation used (limited to max 255 basis functions)
    Wave function sections will be executed (SIRIUS module)
 --------------------------------------------------------------------------------


   ****************************************************************************
   *************** Output of molecule and basis set information ***************
   ****************************************************************************


    The two title cards from your ".mol" input:
    ------------------------------------------------------------------------
 1: MC-srDFT Energy calculation with symmetry                               
 2: Basis set specified with ATOMBASIS                                      
    ------------------------------------------------------------------------

  Atomic type no.    1
  --------------------
  Nuclear charge:   8.00000
  Number of symmetry independent centers:    1
  Number of basis sets to read;    2
  The basis set is "MINI(Scaled)" from the basis set library.
  Basis set file used for this atomic type with Z =   8 :
     "/home/hjj/progs/gitDalton_master/build_master-WIP2_mpi/basis/MINI(Scaled)"

  Atomic type no.    2
  --------------------
  Nuclear charge:   1.00000
  Number of symmetry independent centers:    2
  Number of basis sets to read;    2
  The basis set is "MINI(Scaled)" from the basis set library.
  Basis set file used for this atomic type with Z =   1 :
     "/home/hjj/progs/gitDalton_master/build_master-WIP2_mpi/basis/MINI(Scaled)"


                      SYMADD: Requested addition of symmetry
                      --------------------------------------

 Symmetry test threshold:  5.00E-06

@  The molecule has been centered at center of mass and rotated
@  so the principal axes of inertia are along coordinate axes.

 Symmetry class found: C(2v)          

 Symmetry Independent Centres             
 ----------------------------
O      8 :      0.00000000     0.00000000    -0.12585150  Isotope  1
H1     1 :      0.00000000     1.45235000     0.99867739  Isotope  1

 The following symmetry elements were found:   X  Y     


                         SYMGRP: Point group information
                         -------------------------------

@    Full point group is: C(2v)          
@    Represented as:      C2v

@  * The irrep name for each symmetry:    1: A1     2: B1     3: B2     4: A2 

   * The point group was generated by:

      Reflection in the yz-plane
      Reflection in the xz-plane

   * Group multiplication table

        |  E   C2z  Oxz  Oyz
   -----+--------------------
     E  |  E   C2z  Oxz  Oyz
    C2z | C2z   E   Oyz  Oxz
    Oxz | Oxz  Oyz   E   C2z
    Oyz | Oyz  Oxz  C2z   E 

   * Character table

        |  E   C2z  Oxz  Oyz
   -----+--------------------
    A1  |   1    1    1    1
    B1  |   1   -1    1   -1
    B2  |   1   -1   -1    1
    A2  |   1    1   -1   -1

   * Direct product table

        | A1   B1   B2   A2 
   -----+--------------------
    A1  | A1   B1   B2   A2 
    B1  | B1   A1   A2   B2 
    B2  | B2   A2   A1   B1 
    A2  | A2   B2   B1   A1 


                                 Isotopic Masses
                                 ---------------

                           O          15.994915
                           H1  _1      1.007825
                           H1  _2      1.007825

                       Total mass:    18.010565 amu
                       Natural abundance:  99.730 %

 Center-of-mass coordinates (a.u.):    0.000000    0.000000    0.000000
 Center-of-mass coordinates (Angs):    0.000000    0.000000    0.000000


  Atoms and basis sets
  --------------------

  Number of atom types :    2
  Total number of atoms:    3

  label    atoms   charge   prim   cont     basis
  ----------------------------------------------------------------------
  O           1    8.0000    15     5      [6s3p|2s1p]                                        
  H1          2    1.0000     3     1      [3s|1s]                                            
  ----------------------------------------------------------------------
  total:      3   10.0000    21     7
  ----------------------------------------------------------------------

  Threshold for neglecting AO integrals:  1.00D-12


  Cartesian Coordinates (a.u.)
  ----------------------------

  Total number of coordinates:    9
  O       :     1  x   0.0000000000    2  y   0.0000000000    3  z  -0.1258515023
  H1  / 1 :     4  x   0.0000000000    5  y   1.4523500000    6  z   0.9986773907
  H1  / 2 :     7  x   0.0000000000    8  y  -1.4523500000    9  z   0.9986773907


  Symmetry Coordinates
  --------------------

  Number of coordinates in each symmetry:     3    2    3    1

  Symmetry  A1  ( 1)

    1   O     z    3
    2   H1    y    [  5  -    8 ]/2
    3   H1    z    [  6  +    9 ]/2

  Symmetry  B1  ( 2)

    4   O     x    1
    5   H1    x    [  4  +    7 ]/2

  Symmetry  B2  ( 3)

    6   O     y    2
    7   H1    y    [  5  +    8 ]/2
    8   H1    z    [  6  -    9 ]/2

  Symmetry  A2  ( 4)

    9   H1    x    [  4  -    7 ]/2


   Interatomic separations (in Angstrom):
   --------------------------------------

            O           H1  _1      H1  _2
            ------      ------      ------
 O     :    0.000000
 H1  _1:    0.972000    0.000000
 H1  _2:    0.972000    1.537101    0.000000


  Max    interatomic separation is    1.5371 Angstrom (    2.9047 Bohr)
  between atoms    3 and    2, "H1  _2" and "H1  _1".

  Min HX interatomic separation is    0.9720 Angstrom (    1.8368 Bohr)


  Bond distances (Angstrom):
  --------------------------

                  atom 1     atom 2       distance
                  ------     ------       --------
  bond distance:  H1  _1     O            0.972000
  bond distance:  H1  _2     O            0.972000


  Bond angles (degrees):
  ----------------------

                  atom 1     atom 2     atom 3         angle
                  ------     ------     ------         -----
  bond angle:     H1  _1     O          H1  _2       104.500




 Principal moments of inertia (u*A**2) and principal axes
 --------------------------------------------------------

   IA       0.633889          0.000000    1.000000    0.000000
   IB       1.190584          0.000000    0.000000    1.000000
   IC       1.824473          1.000000    0.000000    0.000000


 Rotational constants
 --------------------

@    The molecule is planar.

               A                   B                   C

         797267.3370         424479.9976         277000.0210 MHz
           26.593976           14.159129            9.239726 cm-1


@  Nuclear repulsion energy :    9.055004525638 Hartree


  Symmetry Orbitals
  -----------------

  Number of orbitals in each symmetry:           4    1    2    0


  Symmetry  A1 ( 1)

    1     O        1s         1
    2     O        1s         2
    3     O        2pz        5
    4     H1       1s         6 +    7


  Symmetry  B1 ( 2)

    5     O        2px        3


  Symmetry  B2 ( 3)

    6     O        2py        4
    7     H1       1s         6 -    7


  No orbitals in symmetry  A2 ( 4)

  Symmetries of electric field:  B1 (2)  B2 (3)  A1 (1)

  Symmetries of magnetic field:  B2 (3)  B1 (2)  A2 (4)


                     .---------------------------------------.
                     | Starting in Integral Section (HERMIT) |
                     `---------------------------------------'



 ***************************************************************************************
 ****************** Output from **INTEGRALS input processing (HERMIT) ******************
 ***************************************************************************************



    *************************************************************************
    ****************** Output from HERMIT input processing ******************
    *************************************************************************


 Default print level:        1

 Calculation of one-electron Hamiltonian integrals.

 Center of mass  (bohr):      0.000000000000      0.000000000000      0.000000000000
 Operator center (bohr):      0.000000000000      0.000000000000      0.000000000000
 Gauge origin    (bohr):      0.000000000000      0.000000000000      0.000000000000
 Dipole origin   (bohr):      0.000000000000      0.000000000000      0.000000000000
 INFO: .DOSRIN option is obsolete


  Set-up from HR2INP:
  -------------------

 Print level in TWOINT:    1

 srDFT-hybrid : Using an Erf type two-elec. operator
                with the coupling parameter :    0.30000
 * Direct calculation of Fock matrices in AO-basis.
 * Program controlled screening thresholds used for this.
 * Separate density screening of Coulomb integral batches
 * Separate density screening of exchange integral batches


     ************************************************************************
     ************************** Output from HERINT **************************
     ************************************************************************



                      Nuclear contribution to dipole moments
                      --------------------------------------

                 au               Debye          C m (/(10**-30)

      z      0.99054276         2.51770841         8.39817128


  Total CPU  time used in HERMIT:   0.01 seconds
  Total wall time used in HERMIT:   0.01 seconds


                        .----------------------------------.
                        | End of Integral Section (HERMIT) |
                        `----------------------------------'



                   .--------------------------------------------.
                   | Starting in Wave Function Section (SIRIUS) |
                   `--------------------------------------------'


 mu value for srDFT is 0.30 (user input)

 *** Output from Huckel module :

     Using EWMO model:          F
     Using EHT  model:          T
     Number of Huckel orbitals each symmetry:    4    1    2    0

 Huckel EHT eigenvalues for symmetry :  1
          -20.704225      -1.499390      -0.671093      -0.296848

 Huckel EHT eigenvalues for symmetry :  2
           -0.616200

 Huckel EHT eigenvalues for symmetry :  3
           -0.731017      -0.261127

 SETCI, core memory needed for CI:
 LCINDX =         207
 LACIMX =         274
 LBCIMX =           0

 Number of determinants:             6

 Number of configurations:           5

 Time used in SETCI :      0.10s

 **********************************************************************
 *SIRIUS* a direct, restricted step, second order MCSCF program       *
 **********************************************************************

 
     Date and time (Linux)  : Thu Aug  4 21:15:46 2022
     Host name              : adm-110765.pc.sdu.dk                    

 Title lines from ".mol" input file:
     MC-srDFT Energy calculation with symmetry                               
     Basis set specified with ATOMBASIS                                      

 Print level on unit LUPRI =   2 is   0
 Print level on unit LUW4  =   2 is   5

@    MC-srDFT optimization.
@              Type: complete active space calculation (CAS).

@    This is a combination run starting with
@              a restricted, closed shell HF-srDFT hybrid calculation
@              an MP2 calculation

 Fock matrices are calculated directly without use of integrals on disk.

 Initial molecular orbitals are obtained according to
 ".MOSTART EHT   " input option

     Wave function specification
     ============================
@    Wave function type        --- MC-srDFT ---
@    Number of closed shell electrons           6
@    Number of electrons in active shells       4
@    Total charge of the molecule               0

@    Spin multiplicity and 2 M_S                3         2
@    Total number of symmetries                 4 (point group: C2v)
@    Reference state symmetry                   2 (irrep name : B1 )

@    This is a lrWFT-srDFT calculation using the 
@      LRCWPBE                 short range exchange functional
@      CPBE                    short range correlation functional

@    sr-DFT and exact sr-HF exchange weights:    1.000000    0.000000

     Orbital specifications
     ======================
@    Abelian symmetry species          All |    1    2    3    4
@                                          |  A1   B1   B2   A2 
                                       --- |  ---  ---  ---  ---
@    Inactive orbitals                   3 |    3    0    0    0
@    Active orbitals                     4 |    1    1    2    0
@    Secondary orbitals                  0 |    0    0    0    0
@    Total number of orbitals            7 |    4    1    2    0
@    Number of basis functions           7 |    4    1    2    0

      -- Initial occupation of symmetries is determined from user input.                      
      -- Initial occupation of symmetries is :
@    Occupied SCF orbitals               5 |    3    1    1    0

     Optimization information
     ========================
@    Number of configurations                 5
@    Number of orbital rotations              3
     ------------------------------------------
@    Total number of variables                8

     Maximum number of macro iterations      25
     Maximum number of micro iterations     600
     Threshold for MCSCF gradient      1.00D-05
     Number of initial trial vectors          1
     Number of initial CI iterations         -1
     Number of simultaneous trial vectors     1

@    This calculation converges to the lowest state for the specified symmetry and spin species.

     Maximum number of NEO/NR iterations  24


 ***********************************************
 ***** DIIS acceleration of SCF iterations *****
 ***********************************************

 C1-DIIS algorithm; max error vectors =    3

 Iter      Total energy        Error norm    Delta(E)  DIIS dim.
 -----------------------------------------------------------------------------

***  INFO  GETGAB: GABSRXXX not found on AOPROPER. Regenerating.
** Atom O   
* Grid spacing
 Value chosen:  0.131
 AH =    563.73316000000000     
 RADERR =    1.0000000000000000E-013
* Inner grid point: 3.68284E-06
* Outer point:
 Value chosen:     7.417
 Constant c: 2.62690E-05
 Number of points:    96
O     1   19128      96     434
** Atom H1  
* Grid spacing
 Value chosen:  0.142
 AH =    14.068125999999999     
 RADERR =    1.0000000000000000E-013
* Inner grid point: 2.33132E-05
* Outer point:
 Value chosen:     8.165
 Constant c: 1.52850E-04
 Number of points:    77
H1    2   18274      77     434

   Number of grid points in quadrature:     37402 (100.0%)


   Ex-sr                                 -7.3842278707
   Ec-sr                                 -0.3301932786
   Ex-sr + Ec-sr                         -7.7144211494
 + EJsr = sr Coulomb energy              31.6597172094
 = Total E(srDFT)                        23.9452960600


 Corrections needed for correct CI energy evaluation:
 - 0.5 Tr(Vxc-sr Dcore)                   5.1725451018
 -     Tr(Vxc-sr Dval)                    0.0000000000
 - 0.5 Tr( (Jsr+HFXFAC*Ksr) Dval )        0.0000000000
   1  Screening settings (-IFTHRS, JTDIIS, DIFDEN, times)   -5    1    F  9.52D-02  9.50D-02
@  1    -75.7517959353        1.78654D+00   -7.58D+01    1
      Virial theorem: -V/T =      1.998420
@    MULPOP   O      -0.50; H1  _1  0.25; H1  _2  0.25; 
   1  Level shift: doubly occupied orbital energies shifted by -2.00D-01
 -----------------------------------------------------------------------------

   Ex-sr                                 -7.3977710887
   Ec-sr                                 -0.3308251450
   Ex-sr + Ec-sr                         -7.7285962336
 + EJsr = sr Coulomb energy              31.7956744084
 = Total E(srDFT)                        24.0670781748


 Corrections needed for correct CI energy evaluation:
 - 0.5 Tr(Vxc-sr Dcore)                   5.1821111584
 -     Tr(Vxc-sr Dval)                    0.0000000000
 - 0.5 Tr( (Jsr+HFXFAC*Ksr) Dval )        0.0000000000
   2  Screening settings (-IFTHRS, JTDIIS, DIFDEN, times)   -6    2    F  9.33D-02  9.40D-02
@  2    -75.8258570083        1.90376D-01   -7.41D-02    2
      Virial theorem: -V/T =      2.000008
@    MULPOP   O      -0.60; H1  _1  0.30; H1  _2  0.30; 
   2  Level shift: doubly occupied orbital energies shifted by -5.00D-02
 -----------------------------------------------------------------------------

   Ex-sr                                 -7.3941834429
   Ec-sr                                 -0.3302616126
   Ex-sr + Ec-sr                         -7.7244450555
 + EJsr = sr Coulomb energy              31.7064144857
 = Total E(srDFT)                        23.9819694302


 Corrections needed for correct CI energy evaluation:
 - 0.5 Tr(Vxc-sr Dcore)                   5.1790396254
 -     Tr(Vxc-sr Dval)                    0.0000000000
 - 0.5 Tr( (Jsr+HFXFAC*Ksr) Dval )        0.0000000000
   3  Screening settings (-IFTHRS, JTDIIS, DIFDEN, times)   -7    3    F  7.98D-02  8.00D-02
@  3    -75.8301099872        4.05288D-02   -4.25D-03    3
      Virial theorem: -V/T =      1.999604
@    MULPOP   O      -0.58; H1  _1  0.29; H1  _2  0.29; 
   3  Level shift: doubly occupied orbital energies shifted by -1.25D-02
 -----------------------------------------------------------------------------

   Ex-sr                                 -7.3994782322
   Ec-sr                                 -0.3304247492
   Ex-sr + Ec-sr                         -7.7299029814
 + EJsr = sr Coulomb energy              31.7492831169
 = Total E(srDFT)                        24.0193801355


 Corrections needed for correct CI energy evaluation:
 - 0.5 Tr(Vxc-sr Dcore)                   5.1826650249
 -     Tr(Vxc-sr Dval)                    0.0000000000
 - 0.5 Tr( (Jsr+HFXFAC*Ksr) Dval )        0.0000000000
   4  Screening settings (-IFTHRS, JTDIIS, DIFDEN, times)   -7    4    F  1.09D-01  1.09D-01
@  4    -75.8302686617        1.11326D-02   -1.59D-04    3
      Virial theorem: -V/T =      1.998883
@    MULPOP   O      -0.59; H1  _1  0.30; H1  _2  0.30; 
 -----------------------------------------------------------------------------

   Ex-sr                                 -7.3978239197
   Ec-sr                                 -0.3303418936
   Ex-sr + Ec-sr                         -7.7281658133
 + EJsr = sr Coulomb energy              31.7309955682
 = Total E(srDFT)                        24.0028297549


 Corrections needed for correct CI energy evaluation:
 - 0.5 Tr(Vxc-sr Dcore)                   5.1814852322
 -     Tr(Vxc-sr Dval)                    0.0000000000
 - 0.5 Tr( (Jsr+HFXFAC*Ksr) Dval )        0.0000000000
   5  Screening settings (-IFTHRS, JTDIIS, DIFDEN, times)   -8    5    F  1.30D-01  1.31D-01
@  5    -75.8302806640        1.97933D-03   -1.20D-05    3
      Virial theorem: -V/T =      1.999024
@    MULPOP   O      -0.59; H1  _1  0.29; H1  _2  0.29; 
 -----------------------------------------------------------------------------

   Ex-sr                                 -7.3980145071
   Ec-sr                                 -0.3303499183
   Ex-sr + Ec-sr                         -7.7283644253
 + EJsr = sr Coulomb energy              31.7326223910
 = Total E(srDFT)                        24.0042579657


 Corrections needed for correct CI energy evaluation:
 - 0.5 Tr(Vxc-sr Dcore)                   5.1816174681
 -     Tr(Vxc-sr Dval)                    0.0000000000
 - 0.5 Tr( (Jsr+HFXFAC*Ksr) Dval )        0.0000000000
   6  Screening settings (-IFTHRS, JTDIIS, DIFDEN, times)   -8    6    F  9.47D-02  9.50D-02
@  6    -75.8302812306        3.87999D-04   -5.67D-07    3
      Virial theorem: -V/T =      1.998998
@    MULPOP   O      -0.59; H1  _1  0.29; H1  _2  0.29; 
 -----------------------------------------------------------------------------

   Ex-sr                                 -7.3980135602
   Ec-sr                                 -0.3303497730
   Ex-sr + Ec-sr                         -7.7283633332
 + EJsr = sr Coulomb energy              31.7325229315
 = Total E(srDFT)                        24.0041595984


 Corrections needed for correct CI energy evaluation:
 - 0.5 Tr(Vxc-sr Dcore)                   5.1816162178
 -     Tr(Vxc-sr Dval)                    0.0000000000
 - 0.5 Tr( (Jsr+HFXFAC*Ksr) Dval )        0.0000000000
   7  Screening settings (-IFTHRS, JTDIIS, DIFDEN, times)   -8    7    F  9.69D-02  9.70D-02
@  7    -75.8302812611        2.25733D-05   -3.04D-08    3

@ *** DIIS converged in   7 iterations !
@     Converged SCF energy, gradient:    -75.830281261054    2.26D-05
    - total time used in SIRFCK :              0.00 seconds

 --- Writing SIRIFC interface file

--------------------------------------------------------------------------------


     .----------------------------------------------------.
     | HF-srDFT KT IPs [a.u. & eV] from Koopmans' theorem |
     `----------------------------------------------------'


     HF-srDFT KT symmetry 1 ( A1 ) in point group C2v -- 3 principal poles with pole strength 1

   ============  ============  ============
      18.663560      1.058277      0.388209
     507.861313     28.797185     10.563693
   ============  ============  ============

     HF-srDFT KT symmetry 2 ( B1 ) in point group C2v -- 1 principal poles with pole strength 1

   ============
       0.322790
       8.783576
   ============

     HF-srDFT KT symmetry 3 ( B2 ) in point group C2v -- 1 principal poles with pole strength 1

   ============
       0.585258
      15.925687
   ============

@ Summary of HF-srDFT KT ionization potentials [eV]:

@ Symmetry 1 (A1 ) :   507.861      28.797      10.564

@ Symmetry 2 (B1 ) :     8.784

@ Symmetry 3 (B2 ) :    15.926

@ Symmetry 4 (A2 ) :  No IPs in this symmetry

  === End of HF-srDFT KT output ===
--------------------------------------------------------------------------------


 CPU and wall time for SCF :       0.701       0.703


WARNING - DFT spin density is not implemented in MP2 module and is ignored.


 ----- Output from SIRIUS MP2 module -----

 Reference: H.J.Aa.Jensen, P.Jørgensen, H.Ågren, and J.Olsen,
            J. Chem. Phys. 88, 3834 (1988); 89, 5354 (1988)

 Checking that the closed shell orbitals are canonical Hartree-Fock orbitals

    Number of electrons  :   10
    Closed shell orbitals:    3    1    1    0

 Generating Fock matrix

   Ex-sr                                 -7.3980135602
   Ec-sr                                 -0.3303497730
   Ex-sr + Ec-sr                         -7.7283633332
 + EJsr = sr Coulomb energy              31.7325229315
 = Total E(srDFT)                        24.0041595984


 Corrections needed for correct CI energy evaluation:
 - 0.5 Tr(Vxc-sr Dcore)                   5.1816162178
 -     Tr(Vxc-sr Dval)                    0.0000000000
 - 0.5 Tr( (Jsr+HFXFAC*Ksr) Dval )        0.0000000000

 Hartree-Fock electronic energy:         -84.885285786691
 Hartree-Fock total      energy:         -75.830281261054

 Hartree-Fock orbital energies, symmetry 1 ( A1 ),    3 occupied SCF orbitals

       -18.66356040    -1.05827712    -0.38820858     0.42177426

 Hartree-Fock orbital energies, symmetry 2 ( B1 ),    1 occupied SCF orbitals

        -0.32279049

 Hartree-Fock orbital energies, symmetry 3 ( B2 ),    1 occupied SCF orbitals

        -0.58525823     0.49505209

    E(LUMO) :     0.42177426   (in symmetry 1)
  - E(HOMO) :    -0.32279049   (in symmetry 2)
  --------------------------
    gap     :     0.74456475

---> (Re)generating AOTWOINT
---> and (re)generating AOSR2INT


     ************************************************************************
     ************************** Output from HERINT **************************
     ************************************************************************


 Threshold for neglecting two-electron integrals:  1.00D-12
 HERMIT - Number of two-electron integrals written:         138 ( 34.0% )
 HERMIT - Megabytes written:                              0.007


 Threshold for neglecting two-electron integrals:  1.00D-12
 HERMIT - Number of two-electron integrals written:         138 ( 34.0% )
 HERMIT - Megabytes written:                              0.007


 2-el. integral transformation level 5: Total CPU and WALL times (sec)       0.002       0.002

 MP2 move   0.000171 electrons to unoccupied HF orbitals


@   Short-range Hartree-Fock total energy        :           -75.8302812611
@   + MP2 contribution from long-range integrals :            -0.0001697758
@   = short-range MP2 second order energy        :           -75.8304510368

 *******************************************************
 MP2-SRDFT natural orbitals: Short-range self-consistent
 contributions are NOT taken into account.
 *******************************************************

 Natural orbital occupation numbers, symmetry 1 (irrep A1 )
 Sum =     6.00001757; RHF =     6.00000000; Difference =     0.00001757

         2.00000000     1.99999823     1.99993233     0.00008701

 Natural orbital occupation numbers, symmetry 2 (irrep B1 )
 Sum =     1.99999999; RHF =     2.00000000; Difference =    -0.00000001

         1.99999999

 Natural orbital occupation numbers, symmetry 3 (irrep B2 )
 Sum =     1.99998244; RHF =     2.00000000; Difference =    -0.00001756

         1.99989849     0.00008395

 Time used for MP2 natural orbitals :       0.087 CPU seconds,       0.087 wall seconds.

 CPU and wall time for MP2 :       0.087       0.087


        SIRIUS MC-srDFT optimization (SIROPT)
 ================================================


 Fock matrix screening setting for SIRCNO: IFTHRS =    9

   --- OUTPUT FROM SIRCNO     Keyword = FD+NO 


   Ex-sr                                 -7.3127895837
   Ec-sr                                 -0.3172999286
   Ex-sr + Ec-sr                         -7.6300895123
 + EJsr = sr Coulomb energy              30.3953004914
 = Total E(srDFT)                        22.7652109791


 Corrections needed for correct CI energy evaluation:
 - 0.5 Tr(Vxc-sr Dcore)                   4.0887366819
 -     Tr(Vxc-sr Dval)                    2.0492365533
 - 0.5 Tr( (Jsr+HFXFAC*Ksr) Dval )       -7.6404980026

 Occupations of CAS natural orbitals:

 Symmetry  1 ( irrep A1  in C2v )

   1.000000000

 Symmetry  2 ( irrep B1  in C2v )

   1.000000000

 Symmetry  3 ( irrep B2  in C2v )

   2.000000000   0.000000000


 --- MACRO ITERATION  1 ---
 --------------------------

 2-el. integral transformation level 3: Total CPU and WALL times (sec)       0.000       0.001

 Fock matrix screening setting for this macro iteration: 10^( -9)

   Ex-sr                                 -7.3845052563
   Ec-sr                                 -0.3083962834
   Ex-sr + Ec-sr                         -7.6929015398
 + EJsr = sr Coulomb energy              30.3953004914
 = Total E(srDFT)                        22.7023989517


 Corrections needed for correct CI energy evaluation:
 - 0.5 Tr(Vxc-sr Dcore)                   4.0790622108
 -     Tr(Vxc-sr Dval)                    2.0244508466
 - 0.5 Tr( (Jsr+HFXFAC*Ksr) Dval )       -7.6404980026

 Total MC-srDFT energy    :           -75.350822630034244  (MACRO    1)

 - Nuclear repulsion      :             9.055004525637894
 - Inactive energy        :           -71.789928074173758
 - Active energy          :            -3.386012596556904
 - srDFT effective energy :            -9.229886484941478

 Norm of total gradient   :             0.353881870705
 -    of CI gradient      :             0.325780688501
 -    of orbital gradient :             0.138200294551
      Virial theorem: -V/T =      1.985537
@    MULPOP   O       0.11; H1  _1 -0.05; H1  _2 -0.05; 

 Residual norm when dim(red L) =   4
 NEO root     CSF        orbital          total
    1     0.00654094     0.01323055     0.01475911 converged

 (NEONEX) NEO vector is converged.

   --- OUTPUT FROM SIRCNO     Keyword = FD+NO 


   Ex-sr                                 -7.3743852089
   Ec-sr                                 -0.3202476466
   Ex-sr + Ec-sr                         -7.6946328555
 + EJsr = sr Coulomb energy              31.0880514714
 = Total E(srDFT)                        23.3934186159


 Corrections needed for correct CI energy evaluation:
 - 0.5 Tr(Vxc-sr Dcore)                   4.1100197576
 -     Tr(Vxc-sr Dval)                    2.0939194299
 - 0.5 Tr( (Jsr+HFXFAC*Ksr) Dval )       -7.9465002759

 Occupations of CAS natural orbitals:

 Symmetry  1 ( irrep A1  in C2v )

   1.000000000

 Symmetry  2 ( irrep B1  in C2v )

   1.000000000

 Symmetry  3 ( irrep B2  in C2v )

   1.999592292   0.000407708


 --- MACRO ITERATION  2 ---
 --------------------------

 2-el. integral transformation level 3: Total CPU and WALL times (sec)       0.000       0.001

 Fock matrix screening setting for this macro iteration: 10^( -9)

   Ex-sr                                 -7.4465127132
   Ec-sr                                 -0.3113005118
   Ex-sr + Ec-sr                         -7.7578132249
 + EJsr = sr Coulomb energy              31.0880514714
 = Total E(srDFT)                        23.3302382465


 Corrections needed for correct CI energy evaluation:
 - 0.5 Tr(Vxc-sr Dcore)                   4.1004918404
 -     Tr(Vxc-sr Dval)                    2.0680419941
 - 0.5 Tr( (Jsr+HFXFAC*Ksr) Dval )       -7.9465002759

 Total MC-srDFT energy    :           -75.373971688831247  (MACRO    2)

 - Nuclear repulsion      :             9.055004525637894
 - Inactive energy        :           -71.651396922177369
 - Active energy          :            -3.241799625888477
 - srDFT effective energy :            -9.535779666403302

 Norm of total gradient   :             0.024472474955
 -    of CI gradient      :             0.019941601225
 -    of orbital gradient :             0.014185717148
      Virial theorem: -V/T =      1.979744
@    MULPOP   O      -0.14; H1  _1  0.07; H1  _2  0.07; 

 Residual norm when dim(red L) =   5
 NEO root     CSF        orbital          total
    1     0.00062612     0.00000171     0.00062612 converged

 (NEONEX) NEO vector is converged.

   --- OUTPUT FROM SIRCNO     Keyword = FD+NO 


   Ex-sr                                 -7.3733681894
   Ec-sr                                 -0.3202045572
   Ex-sr + Ec-sr                         -7.6935727466
 + EJsr = sr Coulomb energy              31.0798703643
 = Total E(srDFT)                        23.3862976177


 Corrections needed for correct CI energy evaluation:
 - 0.5 Tr(Vxc-sr Dcore)                   4.1098413655
 -     Tr(Vxc-sr Dval)                    2.0928753059
 - 0.5 Tr( (Jsr+HFXFAC*Ksr) Dval )       -7.9394239885

 Occupations of CAS natural orbitals:

 Symmetry  1 ( irrep A1  in C2v )

   1.000000000

 Symmetry  2 ( irrep B1  in C2v )

   1.000000000

 Symmetry  3 ( irrep B2  in C2v )

   1.999413252   0.000586748


 --- MACRO ITERATION  3 ---
 --------------------------

 2-el. integral transformation level 3: Total CPU and WALL times (sec)       0.000       0.000

 Fock matrix screening setting for this macro iteration: 10^( -9)

   Ex-sr                                 -7.4456200207
   Ec-sr                                 -0.3112405010
   Ex-sr + Ec-sr                         -7.7568605217
 + EJsr = sr Coulomb energy              31.0798703643
 = Total E(srDFT)                        23.3230098426


 Corrections needed for correct CI energy evaluation:
 - 0.5 Tr(Vxc-sr Dcore)                   4.1003213597
 -     Tr(Vxc-sr Dval)                    2.0668648461
 - 0.5 Tr( (Jsr+HFXFAC*Ksr) Dval )       -7.9394239885

 Total MC-srDFT energy    :           -75.374057348475787  (MACRO    3)

 - Nuclear repulsion      :             9.055004525637894
 - Inactive energy        :           -71.656362791607279
 - Active energy          :            -3.243600778066157
 - srDFT effective energy :            -9.529098304440254

 Norm of total gradient   :             0.000627079974
 -    of CI gradient      :             0.000626986855
 -    of orbital gradient :             0.000010806369
      Virial theorem: -V/T =      1.979909
@    MULPOP   O      -0.13; H1  _1  0.07; H1  _2  0.07; 

 Residual norm when dim(red L) =   6
 NEO root     CSF        orbital          total
    1     0.00000364     0.00000280     0.00000459 converged

 (NEONEX) NEO vector is converged.

   --- OUTPUT FROM SIRCNO     Keyword = FD+NO 


   Ex-sr                                 -7.3732821171
   Ec-sr                                 -0.3202003425
   Ex-sr + Ec-sr                         -7.6934824596
 + EJsr = sr Coulomb energy              31.0788955297
 = Total E(srDFT)                        23.3854130701


 Corrections needed for correct CI energy evaluation:
 - 0.5 Tr(Vxc-sr Dcore)                   4.1098485705
 -     Tr(Vxc-sr Dval)                    2.0927387376
 - 0.5 Tr( (Jsr+HFXFAC*Ksr) Dval )       -7.9386508610

 Occupations of CAS natural orbitals:

 Symmetry  1 ( irrep A1  in C2v )

   1.000000000

 Symmetry  2 ( irrep B1  in C2v )

   1.000000000

 Symmetry  3 ( irrep B2  in C2v )

   1.999418659   0.000581341


 --- MACRO ITERATION  4 ---
 --------------------------

 2-el. integral transformation level 3: Total CPU and WALL times (sec)       0.000       0.001

 Fock matrix screening setting for this macro iteration: 10^( -9)

   Ex-sr                                 -7.4455300165
   Ec-sr                                 -0.3112367120
   Ex-sr + Ec-sr                         -7.7567667285
 + EJsr = sr Coulomb energy              31.0788955297
 = Total E(srDFT)                        23.3221288012


 Corrections needed for correct CI energy evaluation:
 - 0.5 Tr(Vxc-sr Dcore)                   4.1003293072
 -     Tr(Vxc-sr Dval)                    2.0667302503
 - 0.5 Tr( (Jsr+HFXFAC*Ksr) Dval )       -7.9386508610

 Total MC-srDFT energy    :           -75.374057432702173  (MACRO    4)

 - Nuclear repulsion      :             9.055004525637894
 - Inactive energy        :           -71.656892608381668
 - Active energy          :            -3.243811317898546
 - srDFT effective energy :            -9.528358032059849

 Norm of total gradient   :             0.000004616523
 -    of CI gradient      :             0.000003671423
 -    of orbital gradient :             0.000002798738
      Virial theorem: -V/T =      1.979918
@    MULPOP   O      -0.13; H1  _1  0.07; H1  _2  0.07; 

 *** Optimization control: MC-srDFT converged ***
     Number of macro iterations used            4
     Number of micro iterations used           12
     Total number of CPU seconds used         5.40
     Total WALL time used (seconds)           5.43

--------------------------------------------------------------------------------


     .------------------------------------------------------------------.
     | MC-srDFT EKT IPs [a.u. & eV], pole strengths, and Dyson orbitals |
     `------------------------------------------------------------------'


     MC-srDFT EKT symmetry 1 ( A1 ) in point group C2v -- 3 principal poles

   ============  ============  ============  ============
      18.776369      1.097521      0.485554     -0.107875
     510.930985     29.865055     13.212592     -2.935434
   ------------  ------------  ------------  ------------
       1.000000      0.999705      0.999996     -0.500299
   ============  ============  ============  ============
       1.000000      0.000023     -0.000003     -0.000457
      -0.000034      0.999705     -0.000782     -0.024279
      -0.000005     -0.000854     -0.999995     -0.002945
      -0.000323     -0.017166      0.002096     -0.706895
   ============  ============  ============  ============

     MC-srDFT EKT symmetry 2 ( B1 ) in point group C2v -- 1 principal poles

   ============
       0.511327
      13.913927
   ------------
       0.500000
   ============
       0.707107
   ============

     MC-srDFT EKT symmetry 3 ( B2 ) in point group C2v -- 1 principal poles

   ============  ============
       0.610566      0.720606
      16.614344     19.608691
   ------------  ------------
       0.971690      0.028310
   ============  ============
       0.985739      0.167413
      -0.002855      0.016808
   ============  ============

@ Summary of MC-srDFT EKT ionization potentials [eV] and pole strengths:

@ Symmetry 1 (A1 ) :   510.931      29.865      13.213      -2.935
@ Pole strengths   :     1.000       1.000       1.000      -0.500

@ Symmetry 2 (B1 ) :    13.914
@ Pole strengths   :     0.500

@ Symmetry 3 (B2 ) :    16.614      19.609
@ Pole strengths   :     0.972       0.028

@ Symmetry 4 (A2 ) :  No IPs in this symmetry

  === End of MC-srDFT EKT output ===
--------------------------------------------------------------------------------


 CPU and wall time for MCSCF :       5.405       5.429


                     .----------------------------------------.
                     | --- SIRIUS OPTIMIZATION STATISTICS --- |
                     `----------------------------------------'


 
     Date and time (Linux)  : Thu Aug  4 21:15:52 2022
     Host name              : adm-110765.pc.sdu.dk                    


  ITER ITMIC     EMCSCF           GRDNRM        RATIO      STPLNG
 ---------------------------------------------------------------------
    1    3    -75.350822630034   0.3538818707  0.000000   0.1350502855
    2    4    -75.373971688831   0.0244724750  0.989648   0.0084332627
    3    5    -75.374057348476   0.0006270800  0.999815   0.0002753190
    4    0    -75.374057432702   0.0000046165  0.999960   0.0000000000


  ITER  INDGCM  GCIMAX      GCINRM     INDGOM  GOBMAX      GOBNRM      GRDNRM
 ------------------------------------------------------------------------------
    1      3    0.281696    0.325781      3    0.118038    0.138200    0.353882
    2      2    0.018643    0.019942      1    0.011941    0.014186    0.024472
    3      3   -0.000555    0.000627      2    0.000010    0.000011    0.000627
    4      5   -0.000003    0.000004      1   -0.000003    0.000003    0.000005


  ITER ITMIC NCLIN NOLIN   TIMMAC    TIMITR    TIMMIC    TIMLIN    TIMMIC/ITMIC
 ------------------------------------------------------------------------------

    1     3     2     1      1.37      0.00      1.20      1.11      0.40
    2     4     2     2      1.75      0.00      1.60      1.51      0.40
    3     5     3     2      2.01      0.00      1.86      1.78      0.37
    4     0     0     0      0.19      0.00      0.00      0.00


 ITER         EMY                 EACTIV              EMCSCF

    1    -81.019814559115     -3.386012596557    -75.350822630034
    2    -81.187176588581     -3.241799625888    -75.373971688831
    3    -81.185461096048     -3.243600778066    -75.374057348476
    4    -81.185250640442     -3.243811317899    -75.374057432702


 ITER         DEPRED              DEACT               RATIO

    1      0.000000000000      0.000000000000      0.000000000000
    2     -0.023391216128     -0.023149058797      0.989647510010
    3     -0.000085675536     -0.000085659645      0.999814519601
    4     -0.000000084230     -0.000000084226      0.999960129610


 ITER    BETA           GAMMA             STPLNG              RTRUST

    1      0.20000000  1.00000000      0.135050285535      0.700000000000
    2      0.20000000  1.00000000      0.008433262727      0.700000000000
    3      0.20000000  1.00000000      0.000275318986      0.700000000000
    4      0.00000000  0.00000000      0.000000000000      0.700000000000


 Reduced L root no.  1
 ITER         EVAL              EVEC(1)           EVEC(2)           EVEC(3)
 ----------------------------------------------------------------------------
    1   -0.001869933093    0.999635427874   -0.024955762570   -0.009925675525
    2   -0.000006854023    0.999998577605   -0.001296012771   -0.000935064874
    3   -0.000000006738    0.999999998484   -0.000048903424   -0.000010352340
    4    0.000000000000    0.000000000000    0.000000000000    0.000000000000


                       .-----------------------------------.
                       | --- Final results from SIRIUS --- |
                       `-----------------------------------'


@    Spin multiplicity:           3
@    Spatial symmetry:            2 ( irrep  B1  in C2v )
@    Total charge of molecule:    0

@    This was an MC-srDFT calculation with mu =   0.300
@    State number:                1

@    Final MC-SRDFT energy:       -75.374057432702                 
@    Nuclear repulsion:             9.055004525638
@    Electronic energy:           -84.429061958340

@    Final gradient norm:           0.000004616523

 
     Date and time (Linux)  : Thu Aug  4 21:15:52 2022
     Host name              : adm-110765.pc.sdu.dk                    

 Occupancies of natural orbitals
 -------------------------------

 Symmetry 1  ( A1 ) -- Total occupation in this symmetry is   7.000000000

   2.000000000   2.000000000   2.000000000   1.000000000

  Effective numbers of unpaired electrons this symmetry Eqs. 1) and 2):  1.00  1.00

 Symmetry 2  ( B1 ) -- Total occupation in this symmetry is   1.000000000

   1.000000000

  Effective numbers of unpaired electrons this symmetry Eqs. 1) and 2):  1.00  1.00

 Symmetry 3  ( B2 ) -- Total occupation in this symmetry is   2.000000000

   1.999418659   0.000581341

  Effective numbers of unpaired electrons this symmetry Eqs. 1) and 2):  0.00  0.00

 Symmetry 4  ( A2 ) -- No occupied orbitals

  Total effective number of unpaired electrons :
  Eq. 1) sum(i) [(2 - n_i) n_i]    =  2.0023
  Eq. 2) sum(i) [(2 - n_i) n_i]**2 =  2.0000
 (Reference: M. Head-Gordon, Chemical Physics Letters 372 (2003) 508-511)

File label for MO orbitals:   4Aug22   (CNOORB)

 (Only coefficients > 0.0100 are printed.)

 Molecular orbitals for symmetry species 1  (A1 )
 ------------------------------------------------

    Orbital         1        2        3        4
   1 O   :1s     0.9894  -0.2259   0.0793   0.1315
   2 O   :1s     0.0530   0.8495  -0.4083  -0.9284
   3 O   :2pz    0.0076   0.1207   0.8546  -0.6867
   4 H1  :1s    -0.0136   0.1442   0.1823   0.8479

 Molecular orbitals for symmetry species 2  (B1 )
 ------------------------------------------------

    Orbital         1
   1 O   :2px    1.0000

 Molecular orbitals for symmetry species 3  (B2 )
 ------------------------------------------------

    Orbital         1        2
   1 O   :2py    0.7376  -0.9439
   2 H1  :1s     0.3076   0.9145

 Printout of CI-coefficients abs greater than 0.05000 for root  1
 *** NOTE: this root is the reference state ***

 Printout of coefficients in interval  3.1623E-01 to  1.0000E+00
 ===============================================================

  Coefficient of CSF no.         1 is      0.99971957    9.99719570E-01
  Orbital          3   1   2
  Spin coupling    2   1   1

 Printout of coefficients in interval  1.0000E-01 to  3.1623E-01
 ===============================================================
   ( no coefficients )

 Printout of coefficients in interval  5.0000E-02 to  1.0000E-01
 ===============================================================
   ( no coefficients )

 Norm of printed CI vector ..      0.99943922

 Magnitude of CI coefficients
 ============================
 ( Ranges are relative to norm of vector :  1.00E+00 )

  10- 1 to 10- 0         1    0.99943922E+00      0.9994392189
  10- 2 to 10- 1         2    0.46446520E-03      0.9999036841
  10- 3 to 10- 2         2    0.96315928E-04      1.0000000000
  Number of coefficients less than 10^-11 times norm is            0

  Total CPU  time used in SIRIUS :   6.20 seconds
  Total wall time used in SIRIUS :   6.22 seconds

 
     Date and time (Linux)  : Thu Aug  4 21:15:52 2022
     Host name              : adm-110765.pc.sdu.dk                    

 NOTE:    1 warnings have been issued.
 Check output, result, and error files for "WARNING".


                     .---------------------------------------.
                     | End of Wave Function Section (SIRIUS) |
                     `---------------------------------------'

  Total CPU  time used in DALTON:   6.21 seconds
  Total wall time used in DALTON:   6.24 seconds

 
     Date and time (Linux)  : Thu Aug  4 21:15:52 2022
     Host name              : adm-110765.pc.sdu.dk                    
